LAMMPS configuration data file

  7261 atoms

  2 atom types

  -59.378950  59.378950  xlo xhi
  -59.378950  59.378950  ylo yhi
  -35.145750  35.145750  zlo zhi

 Masses

  1   78.960
  2   112.411

 Atoms

        1   1   -37.86437500 -37.86437500  7.57287500 
        2   2   -39.37895000 -36.34980000  9.08745000 
        3   1   -37.86437500 -34.83522500  10.60202500 
        4   2   -39.37895000 -33.32065000  12.11660000 
        5   1   -37.86437500 -31.80607500  13.63117500 
        6   2   -36.34980000 -39.37895000  9.08745000 
        7   1   -34.83522500 -37.86437500  10.60202500 
        8   2   -36.34980000 -36.34980000  12.11660000 
        9   1   -34.83522500 -34.83522500  13.63117500 
       10   2   -36.34980000 -33.32065000  15.14575000 
       11   2   -33.32065000 -39.37895000  12.11660000 
       12   1   -31.80607500 -37.86437500  13.63117500 
       13   2   -33.32065000 -36.34980000  15.14575000 
       14   1   -37.86437500 -37.86437500  1.51457500 
       15   2   -39.37895000 -36.34980000  3.02915000 
       16   1   -37.86437500 -34.83522500  4.54372500 
       17   2   -39.37895000 -33.32065000  6.05830000 
       18   1   -37.86437500 -31.80607500  7.57287500 
       19   2   -39.37895000 -30.29150000  9.08745000 
       20   1   -37.86437500 -28.77692500  10.60202500 
       21   2   -39.37895000 -27.26235000  12.11660000 
       22   1   -37.86437500 -25.74777500  13.63117500 
       23   2   -36.34980000 -39.37895000  3.02915000 
       24   1   -34.83522500 -37.86437500  4.54372500 
       25   2   -36.34980000 -36.34980000  6.05830000 
       26   1   -34.83522500 -34.83522500  7.57287500 
       27   2   -36.34980000 -33.32065000  9.08745000 
       28   1   -34.83522500 -31.80607500  10.60202500 
       29   2   -36.34980000 -30.29150000  12.11660000 
       30   1   -34.83522500 -28.77692500  13.63117500 
       31   2   -36.34980000 -27.26235000  15.14575000 
       32   2   -33.32065000 -39.37895000  6.05830000 
       33   1   -31.80607500 -37.86437500  7.57287500 
       34   2   -33.32065000 -36.34980000  9.08745000 
       35   1   -31.80607500 -34.83522500  10.60202500 
       36   2   -33.32065000 -33.32065000  12.11660000 
       37   1   -31.80607500 -31.80607500  13.63117500 
       38   2   -33.32065000 -30.29150000  15.14575000 
       39   2   -30.29150000 -39.37895000  9.08745000 
       40   1   -28.77692500 -37.86437500  10.60202500 
       41   2   -30.29150000 -36.34980000  12.11660000 
       42   1   -28.77692500 -34.83522500  13.63117500 
       43   2   -30.29150000 -33.32065000  15.14575000 
       44   2   -27.26235000 -39.37895000  12.11660000 
       45   1   -25.74777500 -37.86437500  13.63117500 
       46   2   -27.26235000 -36.34980000  15.14575000 
       47   1   -37.86437500 -37.86437500 -4.54372500 
       48   2   -39.37895000 -36.34980000 -3.02915000 
       49   1   -37.86437500 -34.83522500 -1.51457500 
       50   2   -39.37895000 -33.32065000 -0.00000000 
       51   1   -37.86437500 -31.80607500  1.51457500 
       52   2   -39.37895000 -30.29150000  3.02915000 
       53   1   -37.86437500 -28.77692500  4.54372500 
       54   2   -39.37895000 -27.26235000  6.05830000 
       55   1   -37.86437500 -25.74777500  7.57287500 
       56   2   -39.37895000 -24.23320000  9.08745000 
       57   1   -37.86437500 -22.71862500  10.60202500 
       58   2   -39.37895000 -21.20405000  12.11660000 
       59   1   -37.86437500 -19.68947500  13.63117500 
       60   2   -36.34980000 -39.37895000 -3.02915000 
       61   1   -34.83522500 -37.86437500 -1.51457500 
       62   2   -36.34980000 -36.34980000 -0.00000000 
       63   1   -34.83522500 -34.83522500  1.51457500 
       64   2   -36.34980000 -33.32065000  3.02915000 
       65   1   -34.83522500 -31.80607500  4.54372500 
       66   2   -36.34980000 -30.29150000  6.05830000 
       67   1   -34.83522500 -28.77692500  7.57287500 
       68   2   -36.34980000 -27.26235000  9.08745000 
       69   1   -34.83522500 -25.74777500  10.60202500 
       70   2   -36.34980000 -24.23320000  12.11660000 
       71   1   -34.83522500 -22.71862500  13.63117500 
       72   2   -36.34980000 -21.20405000  15.14575000 
       73   2   -33.32065000 -39.37895000 -0.00000000 
       74   1   -31.80607500 -37.86437500  1.51457500 
       75   2   -33.32065000 -36.34980000  3.02915000 
       76   1   -31.80607500 -34.83522500  4.54372500 
       77   2   -33.32065000 -33.32065000  6.05830000 
       78   1   -31.80607500 -31.80607500  7.57287500 
       79   2   -33.32065000 -30.29150000  9.08745000 
       80   1   -31.80607500 -28.77692500  10.60202500 
       81   2   -33.32065000 -27.26235000  12.11660000 
       82   1   -31.80607500 -25.74777500  13.63117500 
       83   2   -33.32065000 -24.23320000  15.14575000 
       84   2   -30.29150000 -39.37895000  3.02915000 
       85   1   -28.77692500 -37.86437500  4.54372500 
       86   2   -30.29150000 -36.34980000  6.05830000 
       87   1   -28.77692500 -34.83522500  7.57287500 
       88   2   -30.29150000 -33.32065000  9.08745000 
       89   1   -28.77692500 -31.80607500  10.60202500 
       90   2   -30.29150000 -30.29150000  12.11660000 
       91   1   -28.77692500 -28.77692500  13.63117500 
       92   2   -30.29150000 -27.26235000  15.14575000 
       93   2   -27.26235000 -39.37895000  6.05830000 
       94   1   -25.74777500 -37.86437500  7.57287500 
       95   2   -27.26235000 -36.34980000  9.08745000 
       96   1   -25.74777500 -34.83522500  10.60202500 
       97   2   -27.26235000 -33.32065000  12.11660000 
       98   1   -25.74777500 -31.80607500  13.63117500 
       99   2   -27.26235000 -30.29150000  15.14575000 
      100   2   -24.23320000 -39.37895000  9.08745000 
      101   1   -22.71862500 -37.86437500  10.60202500 
      102   2   -24.23320000 -36.34980000  12.11660000 
      103   1   -22.71862500 -34.83522500  13.63117500 
      104   2   -24.23320000 -33.32065000  15.14575000 
      105   2   -21.20405000 -39.37895000  12.11660000 
      106   1   -19.68947500 -37.86437500  13.63117500 
      107   2   -21.20405000 -36.34980000  15.14575000 
      108   1   -37.86437500 -37.86437500 -10.60202500 
      109   2   -39.37895000 -36.34980000 -9.08745000 
      110   1   -37.86437500 -34.83522500 -7.57287500 
      111   2   -39.37895000 -33.32065000 -6.05830000 
      112   1   -37.86437500 -31.80607500 -4.54372500 
      113   2   -39.37895000 -30.29150000 -3.02915000 
      114   1   -37.86437500 -28.77692500 -1.51457500 
      115   2   -39.37895000 -27.26235000 -0.00000000 
      116   1   -37.86437500 -25.74777500  1.51457500 
      117   2   -39.37895000 -24.23320000  3.02915000 
      118   1   -37.86437500 -22.71862500  4.54372500 
      119   2   -39.37895000 -21.20405000  6.05830000 
      120   1   -37.86437500 -19.68947500  7.57287500 
      121   2   -39.37895000 -18.17490000  9.08745000 
      122   1   -37.86437500 -16.66032500  10.60202500 
      123   2   -39.37895000 -15.14575000  12.11660000 
      124   1   -37.86437500 -13.63117500  13.63117500 
      125   2   -36.34980000 -39.37895000 -9.08745000 
      126   1   -34.83522500 -37.86437500 -7.57287500 
      127   2   -36.34980000 -36.34980000 -6.05830000 
      128   1   -34.83522500 -34.83522500 -4.54372500 
      129   2   -36.34980000 -33.32065000 -3.02915000 
      130   1   -34.83522500 -31.80607500 -1.51457500 
      131   2   -36.34980000 -30.29150000 -0.00000000 
      132   1   -34.83522500 -28.77692500  1.51457500 
      133   2   -36.34980000 -27.26235000  3.02915000 
      134   1   -34.83522500 -25.74777500  4.54372500 
      135   2   -36.34980000 -24.23320000  6.05830000 
      136   1   -34.83522500 -22.71862500  7.57287500 
      137   2   -36.34980000 -21.20405000  9.08745000 
      138   1   -34.83522500 -19.68947500  10.60202500 
      139   2   -36.34980000 -18.17490000  12.11660000 
      140   1   -34.83522500 -16.66032500  13.63117500 
      141   2   -36.34980000 -15.14575000  15.14575000 
      142   2   -33.32065000 -39.37895000 -6.05830000 
      143   1   -31.80607500 -37.86437500 -4.54372500 
      144   2   -33.32065000 -36.34980000 -3.02915000 
      145   1   -31.80607500 -34.83522500 -1.51457500 
      146   2   -33.32065000 -33.32065000 -0.00000000 
      147   1   -31.80607500 -31.80607500  1.51457500 
      148   2   -33.32065000 -30.29150000  3.02915000 
      149   1   -31.80607500 -28.77692500  4.54372500 
      150   2   -33.32065000 -27.26235000  6.05830000 
      151   1   -31.80607500 -25.74777500  7.57287500 
      152   2   -33.32065000 -24.23320000  9.08745000 
      153   1   -31.80607500 -22.71862500  10.60202500 
      154   2   -33.32065000 -21.20405000  12.11660000 
      155   1   -31.80607500 -19.68947500  13.63117500 
      156   2   -33.32065000 -18.17490000  15.14575000 
      157   2   -30.29150000 -39.37895000 -3.02915000 
      158   1   -28.77692500 -37.86437500 -1.51457500 
      159   2   -30.29150000 -36.34980000 -0.00000000 
      160   1   -28.77692500 -34.83522500  1.51457500 
      161   2   -30.29150000 -33.32065000  3.02915000 
      162   1   -28.77692500 -31.80607500  4.54372500 
      163   2   -30.29150000 -30.29150000  6.05830000 
      164   1   -28.77692500 -28.77692500  7.57287500 
      165   2   -30.29150000 -27.26235000  9.08745000 
      166   1   -28.77692500 -25.74777500  10.60202500 
      167   2   -30.29150000 -24.23320000  12.11660000 
      168   1   -28.77692500 -22.71862500  13.63117500 
      169   2   -30.29150000 -21.20405000  15.14575000 
      170   2   -27.26235000 -39.37895000 -0.00000000 
      171   1   -25.74777500 -37.86437500  1.51457500 
      172   2   -27.26235000 -36.34980000  3.02915000 
      173   1   -25.74777500 -34.83522500  4.54372500 
      174   2   -27.26235000 -33.32065000  6.05830000 
      175   1   -25.74777500 -31.80607500  7.57287500 
      176   2   -27.26235000 -30.29150000  9.08745000 
      177   1   -25.74777500 -28.77692500  10.60202500 
      178   2   -27.26235000 -27.26235000  12.11660000 
      179   1   -25.74777500 -25.74777500  13.63117500 
      180   2   -27.26235000 -24.23320000  15.14575000 
      181   2   -24.23320000 -39.37895000  3.02915000 
      182   1   -22.71862500 -37.86437500  4.54372500 
      183   2   -24.23320000 -36.34980000  6.05830000 
      184   1   -22.71862500 -34.83522500  7.57287500 
      185   2   -24.23320000 -33.32065000  9.08745000 
      186   1   -22.71862500 -31.80607500  10.60202500 
      187   2   -24.23320000 -30.29150000  12.11660000 
      188   1   -22.71862500 -28.77692500  13.63117500 
      189   2   -24.23320000 -27.26235000  15.14575000 
      190   2   -21.20405000 -39.37895000  6.05830000 
      191   1   -19.68947500 -37.86437500  7.57287500 
      192   2   -21.20405000 -36.34980000  9.08745000 
      193   1   -19.68947500 -34.83522500  10.60202500 
      194   2   -21.20405000 -33.32065000  12.11660000 
      195   1   -19.68947500 -31.80607500  13.63117500 
      196   2   -21.20405000 -30.29150000  15.14575000 
      197   2   -18.17490000 -39.37895000  9.08745000 
      198   1   -16.66032500 -37.86437500  10.60202500 
      199   2   -18.17490000 -36.34980000  12.11660000 
      200   1   -16.66032500 -34.83522500  13.63117500 
      201   2   -18.17490000 -33.32065000  15.14575000 
      202   2   -15.14575000 -39.37895000  12.11660000 
      203   1   -13.63117500 -37.86437500  13.63117500 
      204   2   -15.14575000 -36.34980000  15.14575000 
      205   1   -37.86437500 -34.83522500 -13.63117500 
      206   2   -39.37895000 -33.32065000 -12.11660000 
      207   1   -37.86437500 -31.80607500 -10.60202500 
      208   2   -39.37895000 -30.29150000 -9.08745000 
      209   1   -37.86437500 -28.77692500 -7.57287500 
      210   2   -39.37895000 -27.26235000 -6.05830000 
      211   1   -37.86437500 -25.74777500 -4.54372500 
      212   2   -39.37895000 -24.23320000 -3.02915000 
      213   1   -37.86437500 -22.71862500 -1.51457500 
      214   2   -39.37895000 -21.20405000 -0.00000000 
      215   1   -37.86437500 -19.68947500  1.51457500 
      216   2   -39.37895000 -18.17490000  3.02915000 
      217   1   -37.86437500 -16.66032500  4.54372500 
      218   2   -39.37895000 -15.14575000  6.05830000 
      219   1   -37.86437500 -13.63117500  7.57287500 
      220   2   -39.37895000 -12.11660000  9.08745000 
      221   1   -37.86437500 -10.60202500  10.60202500 
      222   2   -39.37895000 -9.08745000  12.11660000 
      223   1   -37.86437500 -7.57287500  13.63117500 
      224   1   -34.83522500 -37.86437500 -13.63117500 
      225   2   -36.34980000 -36.34980000 -12.11660000 
      226   1   -34.83522500 -34.83522500 -10.60202500 
      227   2   -36.34980000 -33.32065000 -9.08745000 
      228   1   -34.83522500 -31.80607500 -7.57287500 
      229   2   -36.34980000 -30.29150000 -6.05830000 
      230   1   -34.83522500 -28.77692500 -4.54372500 
      231   2   -36.34980000 -27.26235000 -3.02915000 
      232   1   -34.83522500 -25.74777500 -1.51457500 
      233   2   -36.34980000 -24.23320000 -0.00000000 
      234   1   -34.83522500 -22.71862500  1.51457500 
      235   2   -36.34980000 -21.20405000  3.02915000 
      236   1   -34.83522500 -19.68947500  4.54372500 
      237   2   -36.34980000 -18.17490000  6.05830000 
      238   1   -34.83522500 -16.66032500  7.57287500 
      239   2   -36.34980000 -15.14575000  9.08745000 
      240   1   -34.83522500 -13.63117500  10.60202500 
      241   2   -36.34980000 -12.11660000  12.11660000 
      242   1   -34.83522500 -10.60202500  13.63117500 
      243   2   -36.34980000 -9.08745000  15.14575000 
      244   2   -33.32065000 -39.37895000 -12.11660000 
      245   1   -31.80607500 -37.86437500 -10.60202500 
      246   2   -33.32065000 -36.34980000 -9.08745000 
      247   1   -31.80607500 -34.83522500 -7.57287500 
      248   2   -33.32065000 -33.32065000 -6.05830000 
      249   1   -31.80607500 -31.80607500 -4.54372500 
      250   2   -33.32065000 -30.29150000 -3.02915000 
      251   1   -31.80607500 -28.77692500 -1.51457500 
      252   2   -33.32065000 -27.26235000 -0.00000000 
      253   1   -31.80607500 -25.74777500  1.51457500 
      254   2   -33.32065000 -24.23320000  3.02915000 
      255   1   -31.80607500 -22.71862500  4.54372500 
      256   2   -33.32065000 -21.20405000  6.05830000 
      257   1   -31.80607500 -19.68947500  7.57287500 
      258   2   -33.32065000 -18.17490000  9.08745000 
      259   1   -31.80607500 -16.66032500  10.60202500 
      260   2   -33.32065000 -15.14575000  12.11660000 
      261   1   -31.80607500 -13.63117500  13.63117500 
      262   2   -33.32065000 -12.11660000  15.14575000 
      263   2   -30.29150000 -39.37895000 -9.08745000 
      264   1   -28.77692500 -37.86437500 -7.57287500 
      265   2   -30.29150000 -36.34980000 -6.05830000 
      266   1   -28.77692500 -34.83522500 -4.54372500 
      267   2   -30.29150000 -33.32065000 -3.02915000 
      268   1   -28.77692500 -31.80607500 -1.51457500 
      269   2   -30.29150000 -30.29150000 -0.00000000 
      270   1   -28.77692500 -28.77692500  1.51457500 
      271   2   -30.29150000 -27.26235000  3.02915000 
      272   1   -28.77692500 -25.74777500  4.54372500 
      273   2   -30.29150000 -24.23320000  6.05830000 
      274   1   -28.77692500 -22.71862500  7.57287500 
      275   2   -30.29150000 -21.20405000  9.08745000 
      276   1   -28.77692500 -19.68947500  10.60202500 
      277   2   -30.29150000 -18.17490000  12.11660000 
      278   1   -28.77692500 -16.66032500  13.63117500 
      279   2   -30.29150000 -15.14575000  15.14575000 
      280   2   -27.26235000 -39.37895000 -6.05830000 
      281   1   -25.74777500 -37.86437500 -4.54372500 
      282   2   -27.26235000 -36.34980000 -3.02915000 
      283   1   -25.74777500 -34.83522500 -1.51457500 
      284   2   -27.26235000 -33.32065000 -0.00000000 
      285   1   -25.74777500 -31.80607500  1.51457500 
      286   2   -27.26235000 -30.29150000  3.02915000 
      287   1   -25.74777500 -28.77692500  4.54372500 
      288   2   -27.26235000 -27.26235000  6.05830000 
      289   1   -25.74777500 -25.74777500  7.57287500 
      290   2   -27.26235000 -24.23320000  9.08745000 
      291   1   -25.74777500 -22.71862500  10.60202500 
      292   2   -27.26235000 -21.20405000  12.11660000 
      293   1   -25.74777500 -19.68947500  13.63117500 
      294   2   -27.26235000 -18.17490000  15.14575000 
      295   2   -24.23320000 -39.37895000 -3.02915000 
      296   1   -22.71862500 -37.86437500 -1.51457500 
      297   2   -24.23320000 -36.34980000 -0.00000000 
      298   1   -22.71862500 -34.83522500  1.51457500 
      299   2   -24.23320000 -33.32065000  3.02915000 
      300   1   -22.71862500 -31.80607500  4.54372500 
      301   2   -24.23320000 -30.29150000  6.05830000 
      302   1   -22.71862500 -28.77692500  7.57287500 
      303   2   -24.23320000 -27.26235000  9.08745000 
      304   1   -22.71862500 -25.74777500  10.60202500 
      305   2   -24.23320000 -24.23320000  12.11660000 
      306   1   -22.71862500 -22.71862500  13.63117500 
      307   2   -24.23320000 -21.20405000  15.14575000 
      308   2   -21.20405000 -39.37895000 -0.00000000 
      309   1   -19.68947500 -37.86437500  1.51457500 
      310   2   -21.20405000 -36.34980000  3.02915000 
      311   1   -19.68947500 -34.83522500  4.54372500 
      312   2   -21.20405000 -33.32065000  6.05830000 
      313   1   -19.68947500 -31.80607500  7.57287500 
      314   2   -21.20405000 -30.29150000  9.08745000 
      315   1   -19.68947500 -28.77692500  10.60202500 
      316   2   -21.20405000 -27.26235000  12.11660000 
      317   1   -19.68947500 -25.74777500  13.63117500 
      318   2   -21.20405000 -24.23320000  15.14575000 
      319   2   -18.17490000 -39.37895000  3.02915000 
      320   1   -16.66032500 -37.86437500  4.54372500 
      321   2   -18.17490000 -36.34980000  6.05830000 
      322   1   -16.66032500 -34.83522500  7.57287500 
      323   2   -18.17490000 -33.32065000  9.08745000 
      324   1   -16.66032500 -31.80607500  10.60202500 
      325   2   -18.17490000 -30.29150000  12.11660000 
      326   1   -16.66032500 -28.77692500  13.63117500 
      327   2   -18.17490000 -27.26235000  15.14575000 
      328   2   -15.14575000 -39.37895000  6.05830000 
      329   1   -13.63117500 -37.86437500  7.57287500 
      330   2   -15.14575000 -36.34980000  9.08745000 
      331   1   -13.63117500 -34.83522500  10.60202500 
      332   2   -15.14575000 -33.32065000  12.11660000 
      333   1   -13.63117500 -31.80607500  13.63117500 
      334   2   -15.14575000 -30.29150000  15.14575000 
      335   2   -12.11660000 -39.37895000  9.08745000 
      336   1   -10.60202500 -37.86437500  10.60202500 
      337   2   -12.11660000 -36.34980000  12.11660000 
      338   1   -10.60202500 -34.83522500  13.63117500 
      339   2   -12.11660000 -33.32065000  15.14575000 
      340   2   -9.08745000 -39.37895000  12.11660000 
      341   1   -7.57287500 -37.86437500  13.63117500 
      342   2   -9.08745000 -36.34980000  15.14575000 
      343   1   -37.86437500 -28.77692500 -13.63117500 
      344   2   -39.37895000 -27.26235000 -12.11660000 
      345   1   -37.86437500 -25.74777500 -10.60202500 
      346   2   -39.37895000 -24.23320000 -9.08745000 
      347   1   -37.86437500 -22.71862500 -7.57287500 
      348   2   -39.37895000 -21.20405000 -6.05830000 
      349   1   -37.86437500 -19.68947500 -4.54372500 
      350   2   -39.37895000 -18.17490000 -3.02915000 
      351   1   -37.86437500 -16.66032500 -1.51457500 
      352   2   -39.37895000 -15.14575000 -0.00000000 
      353   1   -37.86437500 -13.63117500  1.51457500 
      354   2   -39.37895000 -12.11660000  3.02915000 
      355   1   -37.86437500 -10.60202500  4.54372500 
      356   2   -39.37895000 -9.08745000  6.05830000 
      357   1   -37.86437500 -7.57287500  7.57287500 
      358   2   -39.37895000 -6.05830000  9.08745000 
      359   1   -37.86437500 -4.54372500  10.60202500 
      360   2   -39.37895000 -3.02915000  12.11660000 
      361   1   -37.86437500 -1.51457500  13.63117500 
      362   2   -36.34980000 -33.32065000 -15.14575000 
      363   1   -34.83522500 -31.80607500 -13.63117500 
      364   2   -36.34980000 -30.29150000 -12.11660000 
      365   1   -34.83522500 -28.77692500 -10.60202500 
      366   2   -36.34980000 -27.26235000 -9.08745000 
      367   1   -34.83522500 -25.74777500 -7.57287500 
      368   2   -36.34980000 -24.23320000 -6.05830000 
      369   1   -34.83522500 -22.71862500 -4.54372500 
      370   2   -36.34980000 -21.20405000 -3.02915000 
      371   1   -34.83522500 -19.68947500 -1.51457500 
      372   2   -36.34980000 -18.17490000 -0.00000000 
      373   1   -34.83522500 -16.66032500  1.51457500 
      374   2   -36.34980000 -15.14575000  3.02915000 
      375   1   -34.83522500 -13.63117500  4.54372500 
      376   2   -36.34980000 -12.11660000  6.05830000 
      377   1   -34.83522500 -10.60202500  7.57287500 
      378   2   -36.34980000 -9.08745000  9.08745000 
      379   1   -34.83522500 -7.57287500  10.60202500 
      380   2   -36.34980000 -6.05830000  12.11660000 
      381   1   -34.83522500 -4.54372500  13.63117500 
      382   2   -36.34980000 -3.02915000  15.14575000 
      383   2   -33.32065000 -36.34980000 -15.14575000 
      384   1   -31.80607500 -34.83522500 -13.63117500 
      385   2   -33.32065000 -33.32065000 -12.11660000 
      386   1   -31.80607500 -31.80607500 -10.60202500 
      387   2   -33.32065000 -30.29150000 -9.08745000 
      388   1   -31.80607500 -28.77692500 -7.57287500 
      389   2   -33.32065000 -27.26235000 -6.05830000 
      390   1   -31.80607500 -25.74777500 -4.54372500 
      391   2   -33.32065000 -24.23320000 -3.02915000 
      392   1   -31.80607500 -22.71862500 -1.51457500 
      393   2   -33.32065000 -21.20405000 -0.00000000 
      394   1   -31.80607500 -19.68947500  1.51457500 
      395   2   -33.32065000 -18.17490000  3.02915000 
      396   1   -31.80607500 -16.66032500  4.54372500 
      397   2   -33.32065000 -15.14575000  6.05830000 
      398   1   -31.80607500 -13.63117500  7.57287500 
      399   2   -33.32065000 -12.11660000  9.08745000 
      400   1   -31.80607500 -10.60202500  10.60202500 
      401   2   -33.32065000 -9.08745000  12.11660000 
      402   1   -31.80607500 -7.57287500  13.63117500 
      403   2   -33.32065000 -6.05830000  15.14575000 
      404   1   -28.77692500 -37.86437500 -13.63117500 
      405   2   -30.29150000 -36.34980000 -12.11660000 
      406   1   -28.77692500 -34.83522500 -10.60202500 
      407   2   -30.29150000 -33.32065000 -9.08745000 
      408   1   -28.77692500 -31.80607500 -7.57287500 
      409   2   -30.29150000 -30.29150000 -6.05830000 
      410   1   -28.77692500 -28.77692500 -4.54372500 
      411   2   -30.29150000 -27.26235000 -3.02915000 
      412   1   -28.77692500 -25.74777500 -1.51457500 
      413   2   -30.29150000 -24.23320000 -0.00000000 
      414   1   -28.77692500 -22.71862500  1.51457500 
      415   2   -30.29150000 -21.20405000  3.02915000 
      416   1   -28.77692500 -19.68947500  4.54372500 
      417   2   -30.29150000 -18.17490000  6.05830000 
      418   1   -28.77692500 -16.66032500  7.57287500 
      419   2   -30.29150000 -15.14575000  9.08745000 
      420   1   -28.77692500 -13.63117500  10.60202500 
      421   2   -30.29150000 -12.11660000  12.11660000 
      422   1   -28.77692500 -10.60202500  13.63117500 
      423   2   -30.29150000 -9.08745000  15.14575000 
      424   2   -27.26235000 -39.37895000 -12.11660000 
      425   1   -25.74777500 -37.86437500 -10.60202500 
      426   2   -27.26235000 -36.34980000 -9.08745000 
      427   1   -25.74777500 -34.83522500 -7.57287500 
      428   2   -27.26235000 -33.32065000 -6.05830000 
      429   1   -25.74777500 -31.80607500 -4.54372500 
      430   2   -27.26235000 -30.29150000 -3.02915000 
      431   1   -25.74777500 -28.77692500 -1.51457500 
      432   2   -27.26235000 -27.26235000 -0.00000000 
      433   1   -25.74777500 -25.74777500  1.51457500 
      434   2   -27.26235000 -24.23320000  3.02915000 
      435   1   -25.74777500 -22.71862500  4.54372500 
      436   2   -27.26235000 -21.20405000  6.05830000 
      437   1   -25.74777500 -19.68947500  7.57287500 
      438   2   -27.26235000 -18.17490000  9.08745000 
      439   1   -25.74777500 -16.66032500  10.60202500 
      440   2   -27.26235000 -15.14575000  12.11660000 
      441   1   -25.74777500 -13.63117500  13.63117500 
      442   2   -27.26235000 -12.11660000  15.14575000 
      443   2   -24.23320000 -39.37895000 -9.08745000 
      444   1   -22.71862500 -37.86437500 -7.57287500 
      445   2   -24.23320000 -36.34980000 -6.05830000 
      446   1   -22.71862500 -34.83522500 -4.54372500 
      447   2   -24.23320000 -33.32065000 -3.02915000 
      448   1   -22.71862500 -31.80607500 -1.51457500 
      449   2   -24.23320000 -30.29150000 -0.00000000 
      450   1   -22.71862500 -28.77692500  1.51457500 
      451   2   -24.23320000 -27.26235000  3.02915000 
      452   1   -22.71862500 -25.74777500  4.54372500 
      453   2   -24.23320000 -24.23320000  6.05830000 
      454   1   -22.71862500 -22.71862500  7.57287500 
      455   2   -24.23320000 -21.20405000  9.08745000 
      456   1   -22.71862500 -19.68947500  10.60202500 
      457   2   -24.23320000 -18.17490000  12.11660000 
      458   1   -22.71862500 -16.66032500  13.63117500 
      459   2   -24.23320000 -15.14575000  15.14575000 
      460   2   -21.20405000 -39.37895000 -6.05830000 
      461   1   -19.68947500 -37.86437500 -4.54372500 
      462   2   -21.20405000 -36.34980000 -3.02915000 
      463   1   -19.68947500 -34.83522500 -1.51457500 
      464   2   -21.20405000 -33.32065000 -0.00000000 
      465   1   -19.68947500 -31.80607500  1.51457500 
      466   2   -21.20405000 -30.29150000  3.02915000 
      467   1   -19.68947500 -28.77692500  4.54372500 
      468   2   -21.20405000 -27.26235000  6.05830000 
      469   1   -19.68947500 -25.74777500  7.57287500 
      470   2   -21.20405000 -24.23320000  9.08745000 
      471   1   -19.68947500 -22.71862500  10.60202500 
      472   2   -21.20405000 -21.20405000  12.11660000 
      473   1   -19.68947500 -19.68947500  13.63117500 
      474   2   -21.20405000 -18.17490000  15.14575000 
      475   2   -18.17490000 -39.37895000 -3.02915000 
      476   1   -16.66032500 -37.86437500 -1.51457500 
      477   2   -18.17490000 -36.34980000 -0.00000000 
      478   1   -16.66032500 -34.83522500  1.51457500 
      479   2   -18.17490000 -33.32065000  3.02915000 
      480   1   -16.66032500 -31.80607500  4.54372500 
      481   2   -18.17490000 -30.29150000  6.05830000 
      482   1   -16.66032500 -28.77692500  7.57287500 
      483   2   -18.17490000 -27.26235000  9.08745000 
      484   1   -16.66032500 -25.74777500  10.60202500 
      485   2   -18.17490000 -24.23320000  12.11660000 
      486   1   -16.66032500 -22.71862500  13.63117500 
      487   2   -18.17490000 -21.20405000  15.14575000 
      488   2   -15.14575000 -39.37895000 -0.00000000 
      489   1   -13.63117500 -37.86437500  1.51457500 
      490   2   -15.14575000 -36.34980000  3.02915000 
      491   1   -13.63117500 -34.83522500  4.54372500 
      492   2   -15.14575000 -33.32065000  6.05830000 
      493   1   -13.63117500 -31.80607500  7.57287500 
      494   2   -15.14575000 -30.29150000  9.08745000 
      495   1   -13.63117500 -28.77692500  10.60202500 
      496   2   -15.14575000 -27.26235000  12.11660000 
      497   1   -13.63117500 -25.74777500  13.63117500 
      498   2   -15.14575000 -24.23320000  15.14575000 
      499   2   -12.11660000 -39.37895000  3.02915000 
      500   1   -10.60202500 -37.86437500  4.54372500 
      501   2   -12.11660000 -36.34980000  6.05830000 
      502   1   -10.60202500 -34.83522500  7.57287500 
      503   2   -12.11660000 -33.32065000  9.08745000 
      504   1   -10.60202500 -31.80607500  10.60202500 
      505   2   -12.11660000 -30.29150000  12.11660000 
      506   1   -10.60202500 -28.77692500  13.63117500 
      507   2   -12.11660000 -27.26235000  15.14575000 
      508   2   -9.08745000 -39.37895000  6.05830000 
      509   1   -7.57287500 -37.86437500  7.57287500 
      510   2   -9.08745000 -36.34980000  9.08745000 
      511   1   -7.57287500 -34.83522500  10.60202500 
      512   2   -9.08745000 -33.32065000  12.11660000 
      513   1   -7.57287500 -31.80607500  13.63117500 
      514   2   -9.08745000 -30.29150000  15.14575000 
      515   2   -6.05830000 -39.37895000  9.08745000 
      516   1   -4.54372500 -37.86437500  10.60202500 
      517   2   -6.05830000 -36.34980000  12.11660000 
      518   1   -4.54372500 -34.83522500  13.63117500 
      519   2   -6.05830000 -33.32065000  15.14575000 
      520   2   -3.02915000 -39.37895000  12.11660000 
      521   1   -1.51457500 -37.86437500  13.63117500 
      522   2   -3.02915000 -36.34980000  15.14575000 
      523   1   -37.86437500 -22.71862500 -13.63117500 
      524   2   -39.37895000 -21.20405000 -12.11660000 
      525   1   -37.86437500 -19.68947500 -10.60202500 
      526   2   -39.37895000 -18.17490000 -9.08745000 
      527   1   -37.86437500 -16.66032500 -7.57287500 
      528   2   -39.37895000 -15.14575000 -6.05830000 
      529   1   -37.86437500 -13.63117500 -4.54372500 
      530   2   -39.37895000 -12.11660000 -3.02915000 
      531   1   -37.86437500 -10.60202500 -1.51457500 
      532   2   -39.37895000 -9.08745000 -0.00000000 
      533   1   -37.86437500 -7.57287500  1.51457500 
      534   2   -39.37895000 -6.05830000  3.02915000 
      535   1   -37.86437500 -4.54372500  4.54372500 
      536   2   -39.37895000 -3.02915000  6.05830000 
      537   1   -37.86437500 -1.51457500  7.57287500 
      538   2   -39.37895000  0.00000000  9.08745000 