LAMMPS configuration data file

  3827 atoms

  5 atom types

  -49.660098  49.660098  xlo xhi
  -49.660098  49.660098  ylo yhi
  -29.025289  29.025289  zlo zhi

 Masses

  1   78.960
  2   112.411
  3   32.065
  4   1.000
  5   1.000

 Atoms

        1   1   -28.12239797 -28.12239797  1.53327989 
        2   2   -29.59999786 -26.61059808  3.05540978 
        3   1   -28.09919797 -25.12309818  4.58312967 
        4   2   -29.55589787 -23.61389829  6.12003956 
        5   3   -28.05749797 -22.13709840  7.55598945 
        6   2   -26.61059808 -29.59999786  3.05540978 
        7   1   -25.12309818 -28.09919797  4.58312967 
        8   2   -26.58239808 -26.58239808  6.11491956 
        9   3   -25.09529819 -25.09529819  7.55086946 
       10   2   -26.54989808 -23.59419830  8.99456935 
       11   2   -23.61389829 -29.55589787  6.12003956 
       12   3   -22.13709840 -28.05749797  7.55598945 
       13   2   -23.59419830 -26.54989808  8.99456935 
       14   1   -28.09799797 -28.09799797 -4.56641967 
       15   2   -29.61549786 -26.63139808 -3.03963978 
       16   1   -28.13039797 -25.14299818 -1.51532989 
       17   2   -29.63489786 -23.65699829  0.00458397 
       18   1   -28.13629797 -22.17209840  1.52760989 
       19   2   -29.61849786 -20.67549851  3.05142978 
       20   1   -28.11149797 -19.19969861  4.58136967 
       21   2   -29.57009786 -17.70079872  6.12079956 
       22   3   -28.06589797 -16.23229883  7.55795945 
       23   2   -26.63139808 -29.61549786 -3.03963978 
       24   1   -25.14299818 -28.13039797 -1.51532989 
       25   2   -26.63659808 -26.63659808  0.00437245 
       26   1   -25.14639819 -25.14639819  1.52688989 
       27   2   -26.62519808 -23.64509829  3.04840978 
       28   1   -25.13169819 -22.16079840  4.57800967 
       29   2   -26.59579808 -20.66089851  6.11258956 
       30   3   -25.10279819 -19.18599862  7.55110946 
       31   2   -26.55939808 -17.69359872  8.99612935 
       32   2   -23.65699829 -29.63489786  0.00458397 
       33   1   -22.17209840 -28.13629797  1.52760989 
       34   2   -23.64509829 -26.62519808  3.04840978 
       35   1   -22.16079840 -25.13169819  4.57800967 
       36   2   -23.62509829 -23.62509829  6.10950956 
       37   3   -22.14199840 -22.14199840  7.54850945 
       38   2   -23.60239829 -20.64709851  8.98894935 
       39   2   -20.67549851 -29.61849786  3.05142978 
       40   1   -19.19969861 -28.11149797  4.58136967 
       41   2   -20.66089851 -26.59579808  6.11258956 
       42   3   -19.18599862 -25.10279819  7.55110946 
       43   2   -20.64709851 -23.60239829  8.98894935 
       44   2   -17.70079872 -29.57009786  6.12079956 
       45   3   -16.23229883 -28.06589797  7.55795945 
       46   2   -17.69359872 -26.55939808  8.99612935 
       47   3   -28.06059798 -25.10099819 -7.54383945 
       48   2   -29.57409787 -23.64499829 -6.10850956 
       49   1   -28.10689797 -22.15929840 -4.57178967 
       50   2   -29.62569786 -20.69359851 -3.04641978 
       51   1   -28.14229797 -19.20559862 -1.52263989 
       52   2   -29.64869786 -17.72669872 -0.00021577 
       53   1   -28.14819797 -16.24779883  1.52548989 
       54   2   -29.63109786 -14.75789894  3.05203978 
       55   1   -28.11959797 -13.28889904  4.58307967 
       56   2   -29.57789787 -11.79459915  6.12456956 
       57   3   -28.07019797 -10.33019926  7.56233945 
       58   3   -25.10099819 -28.06059798 -7.54383945 
       59   2   -26.60549808 -26.60549808 -6.10441956 
       60   1   -25.12839819 -25.12839819 -4.57032967 
       61   2   -26.63509808 -23.65889829 -3.04460978 
       62   1   -25.15089819 -22.17329840 -1.52266989 
       63   2   -26.64799807 -20.69029851 -0.00007095 
       64   1   -25.15649818 -19.20789862  1.52536989 
       65   2   -26.63859808 -17.71789872  3.04941978 
       66   1   -25.14029818 -16.24389883  4.58140967 
       67   2   -26.60599808 -14.75109894  6.11709956 
       68   3   -25.10839819 -13.28229904  7.55616945 
       69   2   -26.56639808 -11.79449915  9.00173935 
       70   2   -23.64499829 -29.57409787 -6.10850956 
       71   1   -22.15929840 -28.10689797 -4.57178967 
       72   2   -23.65889829 -26.63509808 -3.04460978 
       73   1   -22.17329840 -25.15089819 -1.52266989 
       74   2   -23.66259829 -23.66259829 -0.00071231 
       75   1   -22.17699840 -22.17699840  1.52544989 
       76   2   -23.65559829 -20.68209851  3.04794978 
       77   1   -22.16709840 -19.20219861  4.58004967 
       78   2   -23.63469829 -17.70859872  6.11482956 
       79   3   -22.14679840 -16.23409883  7.55488945 
       80   2   -23.60979830 -14.74649894  8.99590935 
       81   2   -20.69359851 -29.62569786 -3.04641978 
       82   1   -19.20559862 -28.14229797 -1.52263989 
       83   2   -20.69029851 -26.64799807 -0.00007095 
       84   1   -19.20789862 -25.15649818  1.52536989 
       85   2   -20.68209851 -23.65559829  3.04794978 
       86   1   -19.20219861 -22.16709840  4.58004967 
       87   2   -20.66909851 -20.66909851  6.11344956 
       88   3   -19.18879861 -19.18879861  7.55459945 
       89   2   -20.65299851 -17.69859872  8.99455935 
       90   2   -17.72669872 -29.64869786 -0.00021577 
       91   1   -16.24779883 -28.14819797  1.52548989 
       92   2   -17.71789872 -26.63859808  3.04941978 
       93   1   -16.24389883 -25.14029818  4.58140967 
       94   2   -17.70859872 -23.63469829  6.11482956 
       95   3   -16.23409883 -22.14679840  7.55488945 
       96   2   -17.69859872 -20.65299851  8.99455935 
       97   2   -14.75789894 -29.63109786  3.05203978 
       98   1   -13.28889904 -28.11959797  4.58307967 
       99   2   -14.75109894 -26.60599808  6.11709956 
      100   3   -13.28229904 -25.10839819  7.55616945 
      101   2   -14.74649894 -23.60979830  8.99590935 
      102   2   -11.79459915 -29.57789787  6.12456956 
      103   3   -10.33019926 -28.07019797  7.56233945 
      104   2   -11.79449915 -26.56639808  9.00173935 
      105   3   -28.06519797 -19.18839862 -7.55148946 
      106   2   -29.57839786 -17.72839872 -6.11924956 
      107   1   -28.11449797 -16.23939883 -4.58184967 
      108   2   -29.63329786 -14.77489893 -3.05518978 
      109   1   -28.15099797 -13.28929904 -1.52779989 
      110   2   -29.65629786 -11.81319915 -0.00245236 
      111   1   -28.15429797 -10.33799925  1.52578989 
      112   2   -29.63519786 -8.84970936  3.05487978 
      113   1   -28.12099797 -7.38425947  4.58692967 
      114   2   -29.57859787 -5.89167957  6.12988956 
      115   3   -28.06929797 -4.42894968  7.56692945 
      116   2   -26.56959808 -23.61889829 -8.98739935 
      117   3   -25.10309819 -22.14319840 -7.54487946 
      118   2   -26.60739808 -20.68169851 -6.11047956 
      119   1   -25.13469819 -19.19819861 -4.57908967 
      120   2   -26.64199808 -17.73069872 -3.05232978 
      121   1   -25.15989818 -16.24709883 -1.52810989 
      122   2   -26.65769808 -14.77019894 -0.00278098 
      123   1   -25.16479818 -13.29269904  1.52553989 
      124   2   -26.64599808 -11.80619915  3.05217978 
      125   1   -25.14399819 -10.33689925  4.58466967 
      126   2   -26.60959808 -8.84790936  6.12197956 
      127   3   -25.11019819 -7.38057947  7.56032945 
      128   2   -26.56699808 -5.89448957  9.00750935 
      129   2   -23.61889829 -26.56959808 -8.98739935 
      130   3   -22.14319840 -25.10309819 -7.54487946 
      131   2   -23.64059830 -23.64059830 -6.10833956 
      132   1   -22.16169840 -22.16169840 -4.57788967 
      133   2   -23.66129829 -20.69089851 -3.05147978 
      134   1   -22.17899840 -19.20829862 -1.52861989 
      135   2   -23.67049829 -17.72839872 -0.00300570 
      136   1   -22.18379840 -16.24909883  1.52585989 
      137   2   -23.66489829 -14.76359893  3.05216978 
      138   1   -22.17209840 -13.29049904  4.58480967 
      139   2   -23.64109829 -11.80259915  6.11995956 
      140   3   -22.15009840 -10.33149925  7.55963945 
      141   2   -23.61379830 -8.84680936  9.00122935 
      142   3   -19.18839862 -28.06519797 -7.55148946 
      143   2   -20.68169851 -26.60739808 -6.11047956 
      144   1   -19.19819861 -25.13469819 -4.57908967 
      145   2   -20.69089851 -23.66129829 -3.05147978 
      146   1   -19.20829862 -22.17899840 -1.52861989 
      147   2   -20.69449851 -20.69449851 -0.00325464 
      148   1   -19.21189861 -19.21189861  1.52535989 
      149   2   -20.69049851 -17.72429872  3.05079978 
      150   1   -19.20659861 -16.24649883  4.58517967 
      151   2   -20.67599851 -14.75769893  6.12058956 
      152   3   -19.19169862 -13.28309904  7.56105945 
      153   2   -20.65849851 -11.79849915  9.00097935 
      154   2   -17.72839872 -29.57839786 -6.11924956 
      155   1   -16.23939883 -28.11449797 -4.58184967 
      156   2   -17.73069872 -26.64199808 -3.05232978 
      157   1   -16.24709883 -25.15989818 -1.52810989 
      158   2   -17.72839872 -23.67049829 -0.00300570 
      159   1   -16.24909883 -22.18379840  1.52585989 
      160   2   -17.72429872 -20.69049851  3.05079978 
      161   1   -16.24649883 -19.20659861  4.58517967 
      162   2   -17.71459872 -17.71459872  6.12139956 
      163   3   -16.23559883 -16.23559883  7.56166946 
      164   2   -17.70299872 -14.74979894  9.00222935 
      165   2   -14.77489893 -29.63329786 -3.05518978 
      166   1   -13.28929904 -28.15099797 -1.52779989 
      167   2   -14.77019894 -26.65769808 -0.00278098 
      168   1   -13.29269904 -25.16479818  1.52553989 
      169   2   -14.76359893 -23.66489829  3.05216978 
      170   1   -13.29049904 -22.17209840  4.58480967 
      171   2   -14.75769893 -20.67599851  6.12058956 
      172   3   -13.28309904 -19.19169862  7.56105945 
      173   2   -14.74979894 -17.70299872  9.00222935 
      174   2   -11.81319915 -29.65629786 -0.00245236 
      175   1   -10.33799925 -28.15429797  1.52578989 
      176   2   -11.80619915 -26.64599808  3.05217978 
      177   1   -10.33689925 -25.14399819  4.58466967 
      178   2   -11.80259915 -23.64109829  6.11995956 
      179   3   -10.33149925 -22.15009840  7.55963945 
      180   2   -11.79849915 -20.65849851  9.00097935 
      181   2   -8.84970936 -29.63519786  3.05487978 
      182   1   -7.38425947 -28.12099797  4.58692967 
      183   2   -8.84790936 -26.60959808  6.12197956 
      184   3   -7.38057947 -25.11019819  7.56032945 
      185   2   -8.84680936 -23.61379830  9.00122935 
      186   2   -5.89167957 -29.57859787  6.12988956 
      187   3   -4.42894968 -28.06929797  7.56692945 
      188   2   -5.89448957 -26.56699808  9.00750935 
      189   3   -28.06849797 -13.27999904 -7.56082946 
      190   2   -29.58039786 -11.81839915 -6.12748956 
      191   1   -28.11969797 -10.32919925 -4.58719967 
      192   2   -29.63799786 -8.86531936 -3.05837978 
      193   1   -28.15619797 -7.38057947 -1.52833989 
      194   2   -29.65949786 -5.90421958 -0.00122030 
      195   1   -28.15539797 -4.43016968  1.52713989 
      196   2   -29.63699786 -2.94490979  3.05761978 
      197   1   -28.12179797 -1.48062989  4.58923967 
      198   2   -29.58049787  0.01058730  6.13204956 
      199   3   -28.07069797  1.47275990  7.56891945 
      200   2   -26.56979808 -17.71419872 -8.99572935 
      201   3   -25.10649819 -16.23269883 -7.55448945 
      202   2   -26.60979808 -14.76939894 -6.12010956 
      203   1   -25.14009819 -13.28489904 -4.58618967 
      204   2   -26.64719807 -11.81819915 -3.05733978 
      205   1   -25.16649818 -10.33689925 -1.52900989 
      206   2   -26.66289807 -8.86049936 -0.00206845 
      207   1   -25.16799818 -7.38466947  1.52665989 
      208   2   -26.64859808 -5.90016958  3.05458978 
      209   1   -25.14459818 -4.43307968  4.58727967 
      210   2   -26.61079808 -2.94507979  6.12479956 
      211   3   -25.11069819 -1.47870990  7.56338945 
      212   2   -26.56839808  0.00674111  9.00973935 
      213   2   -23.61589829 -20.66389851 -8.98945935 
      214   3   -22.14449840 -19.18759862 -7.55301946 
      215   2   -23.64109829 -17.72239872 -6.11827956 
      216   1   -22.16579840 -16.24099883 -4.58665967 
      217   2   -23.66579829 -14.77259893 -3.05807978 
      218   1   -22.18499840 -13.29169904 -1.53176989 
      219   2   -23.67709829 -11.81639915 -0.00330903 
      220   1   -22.18889840 -10.34049925  1.52706989 
      221   2   -23.66879829 -8.85621936  3.05405978 
      222   1   -22.17379840 -7.38573947  4.58749967 
      223   2   -23.64319829 -5.89961958  6.12338956 
      224   3   -22.15129840 -4.43045968  7.56352946 
      225   2   -23.61519830 -2.94673979  9.00528935 
      226   2   -20.66389851 -23.61589829 -8.98945935 
      227   3   -19.18759862 -22.14449840 -7.55301946 
      228   2   -20.67819851 -20.67819851 -6.11763956 
      229   1   -19.20009861 -19.20009861 -4.58750967 
      230   2   -20.69219851 -17.72929872 -3.05824978 
      231   1   -19.21219861 -16.24849883 -1.53346989 
      232   2   -20.69959850 -14.77199893 -0.00420447 
      233   1   -19.21679861 -13.29429904  1.52731989 
      234   2   -20.69569851 -11.81179915  3.05564978 
      235   1   -19.20869862 -10.33789926  4.58962967 
      236   2   -20.67959851 -8.85333936  6.12503956 
      237   3   -19.19409862 -7.38107947  7.56570945 
      238   2   -20.66099851 -5.89847957  9.00600935 
      239   2   -17.71419872 -26.56979808 -8.99572935 
      240   3   -16.23269883 -25.10649819 -7.55448945 
      241   2   -17.72239872 -23.64109829 -6.11827956 
      242   1   -16.24099883 -22.16579840 -4.58665967 
      243   2   -17.72929872 -20.69219851 -3.05824978 
      244   1   -16.24849883 -19.21219861 -1.53346989 
      245   2   -17.73149872 -17.73149872 -0.00482125 
      246   1   -16.25199883 -16.25199883  1.52744989 
      247   2   -17.72959872 -14.76859893  3.05674978 
      248   1   -16.24849883 -13.29139904  4.59138967 
      249   2   -17.71899872 -11.80609915  6.12776956 
      250   3   -16.23729883 -10.33039925  7.56725945 
      251   2   -17.70639872 -8.84861936  9.00775935 
      252   3   -13.27999904 -28.06849797 -7.56082946 
      253   2   -14.76939894 -26.60979808 -6.12010956 
      254   1   -13.28489904 -25.14009819 -4.58618967 
      255   2   -14.77259893 -23.66579829 -3.05807978 
      256   1   -13.29169904 -22.18499840 -1.53176989 
      257   2   -14.77199893 -20.69959850 -0.00420447 
      258   1   -13.29429904 -19.21679861  1.52731989 
      259   2   -14.76859893 -17.72959872  3.05674978 
      260   1   -13.29139904 -16.24849883  4.59138967 
      261   2   -14.76149893 -14.76149893  6.12800956 
      262   3   -13.28309904 -13.28309904  7.56748945 
      263   2   -14.75249894 -11.79949915  9.00810935 
      264   2   -11.81839915 -29.58039786 -6.12748956 
      265   1   -10.32919925 -28.11969797 -4.58719967 
      266   2   -11.81819915 -26.64719807 -3.05733978 
      267   1   -10.33689925 -25.16649818 -1.52900989 
      268   2   -11.81639915 -23.67709829 -0.00330903 
      269   1   -10.34049925 -22.18889840  1.52706989 
      270   2   -11.81179915 -20.69569851  3.05564978 
      271   1   -10.33789926 -19.20869862  4.58962967 
      272   2   -11.80609915 -17.71899872  6.12776956 
      273   3   -10.33039925 -16.23729883  7.56725945 
      274   2   -11.79949915 -14.75249894  9.00810935 
      275   2   -8.86531936 -29.63799786 -3.05837978 
      276   1   -7.38057947 -28.15619797 -1.52833989 
      277   2   -8.86049936 -26.66289807 -0.00206845 
      278   1   -7.38466947 -25.16799818  1.52665989 
      279   2   -8.85621936 -23.66879829  3.05405978 
      280   1   -7.38573947 -22.17379840  4.58749967 
      281   2   -8.85333936 -20.67959851  6.12503956 
      282   3   -7.38107947 -19.19409862  7.56570945 
      283   2   -8.84861936 -17.70639872  9.00775935 
      284   2   -5.90421958 -29.65949786 -0.00122030 
      285   1   -4.43016968 -28.15539797  1.52713989 
      286   2   -5.90016958 -26.64859808  3.05458978 
      287   1   -4.43307968 -25.14459818  4.58727967 
      288   2   -5.89961958 -23.64319829  6.12338956 
      289   3   -4.43045968 -22.15129840  7.56352946 
      290   2   -5.89847957 -20.66099851  9.00600935 
      291   2   -2.94490979 -29.63699786  3.05761978 
      292   1   -1.48062989 -28.12179797  4.58923967 
      293   2   -2.94507979 -26.61079808  6.12479956 
      294   3   -1.47870990 -25.11069819  7.56338945 
      295   2   -2.94673979 -23.61519830  9.00528935 
      296   2    0.01058730 -29.58049787  6.13204956 
      297   3    1.47275990 -28.07069797  7.56891945 
      298   2    0.00674111 -26.56839808  9.00973935 
      299   3   -28.06959797 -7.37539947 -7.56717946 
      300   2   -29.58179787 -5.91369957 -6.13255956 
      301   1   -28.12319797 -4.42406968 -4.58932967 
      302   2   -29.63879786 -2.95897979 -3.05883978 
      303   1   -28.15629797 -1.47411989 -1.52863989 
      304   2   -29.66009786 -0.00000000 -0.00000000 
      305   1   -28.15629797  1.47411989  1.52863989 
      306   2   -29.63879786  2.95897979  3.05883978 
      307   1   -28.12319797  4.42406968  4.58932967 
      308   2   -29.58179787  5.91369957  6.13255956 
      309   3   -28.06959797  7.37539947  7.56717946 
      310   2   -26.56939808 -11.81049915 -9.00379935 
      311   3   -25.10829819 -10.32639926 -7.56111946 
      312   2   -26.61199808 -8.86305936 -6.12519956 
      313   1   -25.14539818 -7.37771947 -4.58856967 
      314   2   -26.65119808 -5.91089958 -3.05767978 
      315   1   -25.16999818 -4.42826968 -1.52889989 
      316   2   -26.66479807 -2.95236979 -0.00071445 
      317   1   -25.16859819 -1.47823990  1.52838989 
      318   2   -26.64969808  0.00487200  3.05729978 
      319   1   -25.14649818  1.47287989  4.58918967 
      320   2   -26.61339808  2.95925979  6.12657956 
      321   3   -25.11089819  4.42415968  7.56387945 
      322   2   -26.56859808  5.90860957  9.00987935 
      323   2   -23.61529830 -14.75979894 -8.99829935 
      324   3   -22.14679840 -13.27949904 -7.56119945 
      325   2   -23.64299829 -11.81389915 -6.12460956 
      326   1   -22.17159840 -10.33129926 -4.59044967 
      327   2   -23.67139829 -8.86410936 -3.05935978 
      328   1   -22.19119840 -7.38336947 -1.53132989 
      329   2   -23.68089829 -5.90708957 -0.00178475 
      330   1   -22.19019840 -4.43204968  1.52844989 
      331   2   -23.67059829 -2.95039979  3.05706978 
      332   1   -22.17549840 -1.48083989  4.59078967 
      333   2   -23.64579829  0.00475412  6.12559956 
      334   3   -22.15259840  1.47225989  7.56585945 
      335   2   -23.61629829  2.95592979  9.00694935 
      336   2   -20.66139851 -17.70929872 -8.99812935 
      337   3   -19.18809861 -16.23169883 -7.56370946 
      338   2   -20.67839851 -14.76539893 -6.12710956 
      339   1   -19.20389861 -13.28519904 -4.59506967 
      340   2   -20.69639851 -11.81679915 -3.06288978 
      341   1   -19.21809861 -10.33879925 -1.53363989 
      342   2   -20.70499850 -8.86299936 -0.00325629 
      343   1   -19.21949861 -7.38683947  1.52814989 
      344   2   -20.69799851 -5.90577957  3.05741978 
      345   1   -19.20969861 -4.43451968  4.59304967 
      346   2   -20.68169851 -2.95031979  6.12857956 
      347   3   -19.19499861 -1.47954990  7.56973945 
      348   2   -20.66289851  0.00279024  9.00874935 
      349   2   -17.70929872 -20.66139851 -8.99812935 
      350   3   -16.23169883 -19.18809861 -7.56370946 
      351   2   -17.71959872 -17.71959872 -6.12927956 
      352   1   -16.24179883 -16.24179883 -4.59688967 
      353   2   -17.72979872 -14.77039893 -3.06622978 
      354   1   -16.25179883 -13.29309904 -1.53642989 
      355   2   -17.73569872 -11.81809915 -0.00466788 
      356   1   -16.25519883 -10.34169926  1.52800989 
      357   2   -17.73219872 -8.86077936  3.05846978 
      358   1   -16.24889883 -7.38638946  4.59407967 
      359   2   -17.72099872 -5.90405957  6.13160956 
      360   3   -16.23839883 -4.43103968  7.57227945 
      361   2   -17.70809872 -2.94973979  9.01242935 
      362   2   -14.75979894 -23.61529830 -8.99829935 
      363   3   -13.27949904 -22.14679840 -7.56119945 
      364   2   -14.76539893 -20.67839851 -6.12710956 
      365   1   -13.28519904 -19.20389861 -4.59506967 
      366   2   -14.77039893 -17.72979872 -3.06622978 
      367   1   -13.29309904 -16.25179883 -1.53642989 
      368   2   -14.77429893 -14.77429893 -0.00539496 
      369   1   -13.29669904 -13.29669904  1.52842989 
      370   2   -14.77189893 -11.81509915  3.06050978 
      371   1   -13.29189904 -10.33759925  4.59452967 
      372   2   -14.76349893 -8.85601936  6.13235956 
      373   3   -13.28399904 -7.38010947  7.57193945 
      374   2   -14.75399894 -5.90012958  9.01401935 
      375   2   -11.81049915 -26.56939808 -9.00379935 
      376   3   -10.32639926 -25.10829819 -7.56111946 
      377   2   -11.81389915 -23.64299829 -6.12460956 
      378   1   -10.33129926 -22.17159840 -4.59044967 
      379   2   -11.81679915 -20.69639851 -3.06288978 
      380   1   -10.33879925 -19.21809861 -1.53363989 
      381   2   -11.81809915 -17.73569872 -0.00466788 
      382   1   -10.34169926 -16.25519883  1.52800989 
      383   2   -11.81509915 -14.77189893  3.06050978 
      384   1   -10.33759925 -13.29189904  4.59452967 
      385   2   -11.80859915 -11.80859915  6.13222956 
      386   3   -10.33049926 -10.33049926  7.57100946 
      387   2   -11.80109915 -8.84999936  9.01283935 
      388   3   -7.37539947 -28.06959797 -7.56717946 
      389   2   -8.86305936 -26.61199808 -6.12519956 
      390   1   -7.37771947 -25.14539818 -4.58856967 
      391   2   -8.86410936 -23.67139829 -3.05935978 
      392   1   -7.38336947 -22.19119840 -1.53132989 
      393   2   -8.86299936 -20.70499850 -0.00325629 
      394   1   -7.38683947 -19.21949861  1.52814989 
      395   2   -8.86077936 -17.73219872  3.05846978 
      396   1   -7.38638946 -16.24889883  4.59407967 
      397   2   -8.85601936 -14.76349893  6.13235956 
      398   3   -7.38010947 -13.28399904  7.57193945 
      399   2   -8.84999936 -11.80109915  9.01283935 
      400   2   -5.91369957 -29.58179787 -6.13255956 
      401   1   -4.42406968 -28.12319797 -4.58932967 
      402   2   -5.91089958 -26.65119808 -3.05767978 
      403   1   -4.42826968 -25.16999818 -1.52889989 
      404   2   -5.90708957 -23.68089829 -0.00178475 
      405   1   -4.43204968 -22.19019840  1.52844989 
      406   2   -5.90577957 -20.69799851  3.05741978 
      407   1   -4.43451968 -19.20969861  4.59304967 
      408   2   -5.90405957 -17.72099872  6.13160956 
      409   3   -4.43103968 -16.23839883  7.57227945 
      410   2   -5.90012958 -14.75399894  9.01401935 
      411   2   -2.95897979 -29.63879786 -3.05883978 
      412   1   -1.47411989 -28.15629797 -1.52863989 
      413   2   -2.95236979 -26.66479807 -0.00071445 
      414   1   -1.47823990 -25.16859819  1.52838989 
      415   2   -2.95039979 -23.67059829  3.05706978 
      416   1   -1.48083989 -22.17549840  4.59078967 
      417   2   -2.95031979 -20.68169851  6.12857956 
      418   3   -1.47954990 -19.19499861  7.56973945 
      419   2   -2.94973979 -17.70809872  9.01242935 
      420   2   -0.00000000 -29.66009786 -0.00000000 
      421   1    1.47411989 -28.15629797  1.52863989 
      422   2    0.00487200 -26.64969808  3.05729978 
      423   1    1.47287989 -25.14649818  4.58918967 
      424   2    0.00475412 -23.64579829  6.12559956 
      425   3    1.47225989 -22.15259840  7.56585945 
      426   2    0.00279024 -20.66289851  9.00874935 
      427   2    2.95897979 -29.63879786  3.05883978 
      428   1    4.42406968 -28.12319797  4.58932967 
      429   2    2.95925979 -26.61339808  6.12657956 
      430   3    4.42415968 -25.11089819  7.56387945 
      431   2    2.95592979 -23.61629829  9.00694935 
      432   2    5.91369957 -29.58179787  6.13255956 
      433   3    7.37539947 -28.06959797  7.56717946 
      434   2    5.90860957 -26.56859808  9.00987935 
      435   3   -28.07069797 -1.47275990 -7.56891945 
      436   2   -29.58049787 -0.01058730 -6.13204956 
      437   1   -28.12179797  1.48062989 -4.58923967 
      438   2   -29.63699786  2.94490979 -3.05761978 
      439   1   -28.15539797  4.43016968 -1.52713989 
      440   2   -29.65949786  5.90421958  0.00122029 
      441   1   -28.15619797  7.38057947  1.52833989 
      442   2   -29.63799786  8.86531936  3.05837978 
      443   1   -28.11969797  10.32919925  4.58719967 
      444   2   -29.58039786  11.81839915  6.12748956 
      445   3   -28.06849797  13.27999904  7.56082946 
      446   2   -26.56859808 -5.90860957 -9.00987935 
      447   3   -25.11089819 -4.42415968 -7.56387945 
      448   2   -26.61339808 -2.95925979 -6.12657956 
      449   1   -25.14649818 -1.47287989 -4.58918967 
      450   2   -26.64969808 -0.00487200 -3.05729978 
      451   1   -25.16859819  1.47823990 -1.52838989 
      452   2   -26.66479807  2.95236979  0.00071444 
      453   1   -25.16999818  4.42826968  1.52889989 
      454   2   -26.65119808  5.91089958  3.05767978 
      455   1   -25.14539818  7.37771947  4.58856967 
      456   2   -26.61199808  8.86305936  6.12519956 
      457   3   -25.10829819  10.32639926  7.56111946 
      458   2   -26.56939808  11.81049915  9.00379935 
      459   2   -23.61469829 -8.85653936 -9.00484935 
      460   3   -22.14959840 -7.37498947 -7.56505946 
      461   2   -23.64619829 -5.90940957 -6.12707956 
      462   1   -22.17649840 -4.42587968 -4.59129967 
      463   2   -23.67329829 -2.95675978 -3.05869978 
      464   1   -22.19169840 -1.47552989 -1.53056989 
      465   2   -23.68129829 -0.00000000 -0.00000000 
      466   1   -22.19169840  1.47552989  1.53056989 
      467   2   -23.67329829  2.95675978  3.05869978 
      468   1   -22.17649840  4.42587968  4.59129967 
      469   2   -23.64619829  5.90940957  6.12707956 
      470   3   -22.14959840  7.37498947  7.56505946 
      471   2   -23.61469829  8.85653936  9.00484935 
      472   2   -20.66039851 -11.80529915 -9.00494935 
      473   3   -19.19049861 -10.32529925 -7.56839945 
      474   2   -20.68159851 -8.85923936 -6.13022956 
      475   1   -19.21019862 -7.37870947 -4.59530967 
      476   2   -20.70189850 -5.90940957 -3.06214978 
      477   1   -19.22239861 -4.43005968 -1.53285989 
      478   2   -20.70699851 -2.95402979 -0.00110222 
      479   1   -19.22139861 -1.47906989  1.53152989 
      480   2   -20.70089851  0.00144389  3.06108978 
      481   1   -19.21239861  1.47296989  4.59591967 
      482   2   -20.68439851  2.95534979  6.13098956 
      483   3   -19.19439862  4.42373968  7.57046945 
      484   2   -20.66199851  5.90422957  9.00933935 
      485   2   -17.70629872 -14.75479894 -9.00787935 
      486   3   -16.23249883 -13.27789904 -7.57180945 
      487   2   -17.72019872 -11.80979915 -6.13508956 
      488   1   -16.24679883 -10.33109925 -4.59962967 
      489   2   -17.73519872 -8.86190936 -3.06594978 
      490   1   -16.25699883 -7.38449947 -1.53539989 
      491   2   -17.73919872 -5.90874958 -0.00291350 
      492   1   -16.25669883 -4.43291968  1.53044989 
      493   2   -17.73479872 -2.95459979  3.06252978 
      494   1   -16.25189882 -1.48177990  4.59907967 
      495   2   -17.72459872  0.00097028  6.13477956 
      496   3   -16.23939883  1.47185989  7.57508945 
      497   2   -17.70899872  2.95263979  9.01434935 
      498   2   -14.75479894 -17.70629872 -9.00787935 
      499   3   -13.27789904 -16.23249883 -7.57180945 
      500   2   -14.76289894 -14.76289894 -6.13740956 
      501   1   -13.28709904 -13.28709904 -4.60246967 
      502   2   -14.77259893 -11.81539915 -3.07066978 
      503   1   -13.29679904 -10.33999925 -1.53716989 
      504   2   -14.77759893 -8.86395936 -0.00448027 
      505   1   -13.29809904 -7.38710947  1.52926989 
      506   2   -14.77319893 -5.90813957  3.06285978 
      507   1   -13.29269904 -4.43352968  4.59857967 
      508   2   -14.76599894 -2.95345979  6.13698955 
      509   3   -13.28469904 -1.47944989  7.57685945 
      510   2   -14.75599894 -0.00001125  9.01733935 
      511   2   -11.80529915 -20.66039851 -9.00494935 
      512   3   -10.32529925 -19.19049861 -7.56839945 
      513   2   -11.80979915 -17.72019872 -6.13508956 
      514   1   -10.33109925 -16.24679883 -4.59962967 
      515   2   -11.81539915 -14.77259893 -3.07066978 
      516   1   -10.33999925 -13.29679904 -1.53716989 
      517   2   -11.81989915 -11.81989915 -0.00523546 
      518   1   -10.34249926 -10.34249926  1.52814989 
      519   2   -11.81599915 -8.86185936  3.06140978 
      520   1   -10.33749926 -7.38484947  4.59617967 
      521   2   -11.80919915 -5.90505958  6.13586956 
      522   3   -10.33049926 -4.43005968  7.57566945 
      523   2   -11.80239915 -2.95197978  9.01844935 
      524   2   -8.85653936 -23.61469829 -9.00484935 
      525   3   -7.37498947 -22.14959840 -7.56505946 
      526   2   -8.85923936 -20.68159851 -6.13022956 
      527   1   -7.37870947 -19.21019862 -4.59530967 
      528   2   -8.86190936 -17.73519872 -3.06594978 
      529   1   -7.38449947 -16.25699883 -1.53539989 
      530   2   -8.86395936 -14.77759893 -0.00448027 
      531   1   -7.38710947 -13.29809904  1.52926989 
      532   2   -8.86185936 -11.81599915  3.06140978 
      533   1   -7.38484947 -10.33749926  4.59617967 
      534   2   -8.85621936 -8.85621936  6.13429956 
      535   3   -7.37957947 -7.37957947  7.57427945 
      536   2   -8.85050936 -5.90120957  9.01755935 
      537   2   -5.90860957 -26.56859808 -9.00987935 
      538   3   -4.42415968 -25.11089819 -7.56387945 
      539   2   -5.90940957 -23.64619829 -6.12707956 
      540   1   -4.42587968 -22.17649840 -4.59129967 
      541   2   -5.90940957 -20.70189850 -3.06214978 
      542   1   -4.43005968 -19.22239861 -1.53285989 
      543   2   -5.90874958 -17.73919872 -0.00291350 
      544   1   -4.43291968 -16.25669883  1.53044989 
      545   2   -5.90813957 -14.77319893  3.06285978 