LAMMPS configuration data file

  693 atoms

  4 atom types

  -49.580998  49.580998  xlo xhi
  -49.580998  49.580998  ylo yhi
  -21.543900  21.543900  zlo zhi

 Masses

  1   78.960
  2   112.411
  3   1.000
  4   1.000

 Atoms

        1   1   -28.03709797 -28.03709797  1.52989989 
        2   1   -28.04669797 -25.06169819 -1.52850989 
        3   2   -29.54919787 -23.57759830 -0.00288404 
        4   1   -28.05429797 -22.09709840  1.52895989 
        5   1   -25.06169819 -28.04669797 -1.52850989 
        6   2   -26.55329808 -26.55329808 -0.00379771 
        7   1   -25.06719819 -25.06719819  1.52950989 
        8   2   -23.57759830 -29.54919787 -0.00288404 
        9   1   -22.09709840 -28.05429797  1.52895989 
       10   1   -28.06189797 -19.13859862 -1.52990989 
       11   2   -29.56519787 -17.66159873 -0.00199489 
       12   1   -28.06679798 -16.18679883  1.53039989 
       13   1   -25.07349819 -22.10059840 -1.53194989 
       14   2   -26.56759808 -20.62009851 -0.00379360 
       15   1   -25.07929819 -19.14169862  1.52939989 
       16   1   -22.10059840 -25.07349819 -1.53194989 
       17   2   -23.58699830 -23.58699830 -0.00473973 
       18   1   -22.10559840 -22.10559840  1.52895989 
       19   1   -19.13859862 -28.06189797 -1.52990989 
       20   2   -20.62009851 -26.56759808 -0.00379360 
       21   1   -19.14169862 -25.07929819  1.52939989 
       22   2   -17.66159873 -29.56519787 -0.00199489 
       23   1   -16.18679883 -28.06679798  1.53039989 
       24   1   -28.07259798 -13.23619904 -1.53171989 
       25   2   -29.57489787 -11.76339915 -0.00075776 
       26   1   -28.07469797 -10.29199925  1.53284989 
       27   1   -25.08479819 -16.18659883 -1.53312989 
       28   2   -26.57919808 -14.71189894 -0.00227557 
       29   1   -25.08839819 -13.23889904  1.53212989 
       30   1   -22.10899840 -19.14329862 -1.53284989 
       31   2   -23.59729830 -17.66489873 -0.00343130 
       32   1   -22.11329840 -16.18949883  1.53098989 
       33   1   -19.14329862 -22.10899840 -1.53284989 
       34   2   -20.62699851 -20.62699851 -0.00388258 
       35   1   -19.14719862 -19.14719862  1.52920989 
       36   1   -16.18659883 -25.08479819 -1.53312989 
       37   2   -17.66489873 -23.59729830 -0.00343130 
       38   1   -16.18949883 -22.11329840  1.53098989 
       39   1   -13.23619904 -28.07259798 -1.53171989 
       40   2   -14.71189894 -26.57919808 -0.00227557 
       41   1   -13.23889904 -25.08839819  1.53212989 
       42   2   -11.76339915 -29.57489787 -0.00075776 
       43   1   -10.29199925 -28.07469797  1.53284989 
       44   1   -28.07889797 -7.34747947 -1.53340989 
       45   2   -29.58099787 -5.87753958 -0.00025650 
       46   1   -28.07939797 -4.40767968  1.53352989 
       47   1   -25.09329819 -10.29049926 -1.53344989 
       48   2   -26.58669808 -8.81864936 -0.00060017 
       49   1   -25.09459819 -7.34843947  1.53437989 
       50   1   -22.11789840 -13.23799905 -1.53332989 
       51   2   -23.60609830 -11.76409915 -0.00118736 
       52   1   -22.12019840 -10.29229926  1.53389989 
       53   1   -19.14949862 -16.18989883 -1.53350989 
       54   2   -20.63389851 -14.71399894 -0.00201146 
       55   1   -19.15199862 -13.23969904  1.53240989 
       56   1   -16.18989883 -19.14949862 -1.53350989 
       57   2   -17.66899872 -17.66899872 -0.00227922 
       58   1   -16.19179883 -16.19179883  1.53280989 
       59   1   -13.23799905 -22.11789840 -1.53332989 
       60   2   -14.71399894 -20.63389851 -0.00201146 
       61   1   -13.23969904 -19.15199862  1.53240989 
       62   1   -10.29049926 -25.09329819 -1.53344989 
       63   2   -11.76409915 -23.60609830 -0.00118736 
       64   1   -10.29229926 -22.12019840  1.53389989 
       65   1   -7.34747947 -28.07889797 -1.53340989 
       66   2   -8.81864936 -26.58669808 -0.00060017 
       67   1   -7.34843947 -25.09459819  1.53437989 
       68   2   -5.87753958 -29.58099787 -0.00025650 
       69   1   -4.40767968 -28.07939797  1.53352989 
       70   1   -28.07969797 -1.46842989 -1.53476989 
       71   2   -29.58089787 -0.00000000 -0.00000000 
       72   1   -28.07969797  1.46842989  1.53476989 
       73   1   -25.09609819 -4.40687968 -1.53472989 
       74   2   -26.58849808 -2.93718979  0.00016300 
       75   1   -25.09539819 -1.46874990  1.53571989 
       76   1   -22.12369840 -7.34757947 -1.53480989 
       77   2   -23.61049829 -5.87704958  0.00010604 
       78   1   -22.12309840 -4.40759968  1.53535989 
       79   1   -19.15609862 -10.29159925 -1.53392989 
       80   2   -20.64029851 -8.81887937 -0.00052544 
       81   1   -19.15629862 -7.34819947  1.53440989 
       82   1   -16.19469883 -13.24059904 -1.53498989 
       83   2   -17.67409872 -11.76489915 -0.00126131 
       84   1   -16.19509883 -10.29169926  1.53401989 
       85   1   -13.24059904 -16.19469883 -1.53498989 
       86   2   -14.71639894 -14.71639894 -0.00155939 
       87   1   -13.24069905 -13.24069905  1.53358989 
       88   1   -10.29159925 -19.15609862 -1.53392989 
       89   2   -11.76489915 -17.67409872 -0.00126131 
       90   1   -10.29169926 -16.19509883  1.53401989 
       91   1   -7.34757947 -22.12369840 -1.53480989 
       92   2   -8.81887937 -20.64029851 -0.00052544 
       93   1   -7.34819947 -19.15629862  1.53440989 
       94   1   -4.40687968 -25.09609819 -1.53472989 
       95   2   -5.87704958 -23.61049829  0.00010604 
       96   1   -4.40759968 -22.12309840  1.53535989 
       97   1   -1.46842989 -28.07969797 -1.53476989 
       98   2   -2.93718979 -26.58849808  0.00016300 
       99   1   -1.46874990 -25.09539819  1.53571989 
      100   2   -0.00000000 -29.58089787 -0.00000000 
      101   1    1.46842989 -28.07969797  1.53476989 
      102   1   -28.07939797  4.40767968 -1.53352989 
      103   2   -29.58099787  5.87753958  0.00025650 
      104   1   -28.07889797  7.34747947  1.53340989 
      105   1   -25.09539819  1.46874990 -1.53571989 
      106   2   -26.58849808  2.93718979 -0.00016300 
      107   1   -25.09609819  4.40687968  1.53472989 
      108   1   -22.12379840 -1.46816989 -1.53621989 
      109   2   -23.61039830 -0.00000000 -0.00000000 
      110   1   -22.12379840  1.46816989  1.53621989 
      111   1   -19.15859861 -4.40765968 -1.53551989 
      112   2   -20.64169851 -2.93739979 -0.00003657 
      113   1   -19.15849862 -1.46851989  1.53659989 
      114   1   -16.19769883 -7.34856947 -1.53698989 
      115   2   -17.67699872 -5.87745958 -0.00070985 
      116   1   -16.19809883 -4.40654968  1.53628989 
      117   1   -13.24329904 -10.29339926 -1.53752989 
      118   2   -14.71899894 -8.81916937 -0.00146331 
      119   1   -13.24339905 -7.34672947  1.53579989 
      120   1   -10.29339926 -13.24329904 -1.53752989 
      121   2   -11.76639915 -11.76639915 -0.00197006 
      122   1   -10.29259926 -10.29259926  1.53542989 
      123   1   -7.34856947 -16.19769883 -1.53698989 
      124   2   -8.81916937 -14.71899894 -0.00146331 
      125   1   -7.34672947 -13.24339905  1.53579989 
      126   1   -4.40765968 -19.15859861 -1.53551989 
      127   2   -5.87745958 -17.67699872 -0.00070985 
      128   1   -4.40654968 -16.19809883  1.53628989 
      129   1   -1.46816989 -22.12379840 -1.53621989 
      130   2   -2.93739979 -20.64169851 -0.00003657 
      131   1   -1.46851989 -19.15849862  1.53659989 
      132   1    1.46874990 -25.09539819 -1.53571989 
      133   2   -0.00000000 -23.61039830 -0.00000000 
      134   1    1.46816989 -22.12379840  1.53621989 
      135   1    4.40767968 -28.07939797 -1.53352989 
      136   2    2.93718979 -26.58849808 -0.00016300 
      137   1    4.40687968 -25.09609819  1.53472989 
      138   2    5.87753958 -29.58099787  0.00025650 
      139   1    7.34747947 -28.07889797  1.53340989 
      140   1   -28.07469797  10.29199925 -1.53284989 
      141   2   -29.57489787  11.76339915  0.00075776 
      142   1   -28.07259798  13.23619904  1.53171989 
      143   1   -25.09459819  7.34843947 -1.53437989 
      144   2   -26.58669808  8.81864936  0.00060017 
      145   1   -25.09329819  10.29049926  1.53344989 
      146   1   -22.12309840  4.40759968 -1.53535989 
      147   2   -23.61049829  5.87704958 -0.00010604 
      148   1   -22.12369840  7.34757947  1.53480989 
      149   1   -19.15849862  1.46851989 -1.53659989 
      150   2   -20.64169851  2.93739979  0.00003656 
      151   1   -19.15859861  4.40765968  1.53551989 
      152   1   -16.20019883 -1.46835989 -1.53864989 
      153   2   -17.67899872 -0.00000000 -0.00000000 
      154   1   -16.20019883  1.46835989  1.53864989 
      155   1   -13.24559904 -4.40664968 -1.53933989 
      156   2   -14.72179894 -2.93634979 -0.00082830 
      157   1   -13.24579904 -1.46722989  1.53917989 
      158   1   -10.29469925 -7.34817947 -1.54039989 
      159   2   -11.76849915 -5.87624958 -0.00196670 
      160   1   -10.29509926 -4.40537968  1.53764989 
      161   1   -7.34817947 -10.29469925 -1.54039989 
      162   2   -8.81986936 -8.81986936 -0.00264966 
      163   1   -7.34837947 -7.34837947  1.53776989 
      164   1   -4.40664968 -13.24559904 -1.53933989 
      165   2   -5.87624958 -11.76849915 -0.00196670 
      166   1   -4.40537968 -10.29509926  1.53764989 
      167   1   -1.46835989 -16.20019883 -1.53864989 
      168   2   -2.93634979 -14.72179894 -0.00082830 
      169   1   -1.46722989 -13.24579904  1.53917989 
      170   1    1.46851989 -19.15849862 -1.53659989 
      171   2   -0.00000000 -17.67899872 -0.00000000 
      172   1    1.46835989 -16.20019883  1.53864989 
      173   1    4.40759968 -22.12309840 -1.53535989 
      174   2    2.93739979 -20.64169851  0.00003656 
      175   1    4.40765968 -19.15859861  1.53551989 
      176   1    7.34843947 -25.09459819 -1.53437989 
      177   2    5.87704958 -23.61049829 -0.00010604 
      178   1    7.34757947 -22.12369840  1.53480989 
      179   1    10.29199925 -28.07469797 -1.53284989 
      180   2    8.81864936 -26.58669808  0.00060017 
      181   1    10.29049926 -25.09329819  1.53344989 
      182   2    11.76339915 -29.57489787  0.00075776 
      183   1    13.23619904 -28.07259798  1.53171989 
      184   1   -28.06679798  16.18679883 -1.53039989 
      185   2   -29.56519787  17.66159873  0.00199489 
      186   1   -28.06189797  19.13859862  1.52990989 
      187   1   -25.08839819  13.23889904 -1.53212989 
      188   2   -26.57919808  14.71189894  0.00227556 
      189   1   -25.08479819  16.18659883  1.53312989 
      190   1   -22.12019840  10.29229926 -1.53389989 
      191   2   -23.60609830  11.76409915  0.00118736 
      192   1   -22.11789840  13.23799905  1.53332989 
      193   1   -19.15629862  7.34819947 -1.53440989 
      194   2   -20.64029851  8.81887937  0.00052544 
      195   1   -19.15609862  10.29159925  1.53392989 
      196   1   -16.19809883  4.40654968 -1.53628989 
      197   2   -17.67699872  5.87745958  0.00070985 
      198   1   -16.19769883  7.34856947  1.53698989 
      199   1   -13.24579904  1.46722989 -1.53917989 
      200   2   -14.72179894  2.93634979  0.00082829 
      201   1   -13.24559904  4.40664968  1.53933989 
      202   1   -10.29619925 -1.46837990 -1.54125989 
      203   2   -11.76969915 -0.00000000 -0.00000000 
      204   1   -10.29619925  1.46837990  1.54125989 
      205   1   -7.35013947 -4.40702968 -1.54211989 
      206   2   -8.82171936 -2.93635979 -0.00155320 
      207   1   -7.35019947 -1.46776989  1.54128989 
      208   1   -4.40702968 -7.35013947 -1.54211989 
      209   2   -5.87775958 -5.87775958 -0.00217615 
      210   1   -4.40725968 -4.40725968  1.54044989 
      211   1   -1.46837990 -10.29619925 -1.54125989 
      212   2   -2.93635979 -8.82171936 -0.00155320 
      213   1   -1.46776989 -7.35019947  1.54128989 
      214   1    1.46722989 -13.24579904 -1.53917989 
      215   2   -0.00000000 -11.76969915 -0.00000000 
      216   1    1.46837990 -10.29619925  1.54125989 
      217   1    4.40654968 -16.19809883 -1.53628989 
      218   2    2.93634979 -14.72179894  0.00082829 
      219   1    4.40664968 -13.24559904  1.53933989 
      220   1    7.34819947 -19.15629862 -1.53440989 
      221   2    5.87745958 -17.67699872  0.00070985 
      222   1    7.34856947 -16.19769883  1.53698989 
      223   1    10.29229926 -22.12019840 -1.53389989 
      224   2    8.81887937 -20.64029851  0.00052544 
      225   1    10.29159925 -19.15609862  1.53392989 
      226   1    13.23889904 -25.08839819 -1.53212989 
      227   2    11.76409915 -23.60609830  0.00118736 
      228   1    13.23799905 -22.11789840  1.53332989 
      229   1    16.18679883 -28.06679798 -1.53039989 
      230   2    14.71189894 -26.57919808  0.00227556 
      231   1    16.18659883 -25.08479819  1.53312989 
      232   2    17.66159873 -29.56519787  0.00199489 
      233   1    19.13859862 -28.06189797  1.52990989 
      234   1   -28.05429797  22.09709840 -1.52895989 
      235   2   -29.54919787  23.57759830  0.00288403 
      236   1   -28.04669797  25.06169819  1.52850989 
      237   1   -25.07929819  19.14169862 -1.52939989 
      238   2   -26.56759808  20.62009851  0.00379360 
      239   1   -25.07349819  22.10059840  1.53194989 
      240   1   -22.11329840  16.18949883 -1.53098989 
      241   2   -23.59729830  17.66489873  0.00343130 
      242   1   -22.10899840  19.14329862  1.53284989 
      243   1   -19.15199862  13.23969904 -1.53240989 
      244   2   -20.63389851  14.71399894  0.00201146 
      245   1   -19.14949862  16.18989883  1.53350989 
      246   1   -16.19509883  10.29169926 -1.53401989 
      247   2   -17.67409872  11.76489915  0.00126130 
      248   1   -16.19469883  13.24059904  1.53498989 
      249   1   -13.24339905  7.34672947 -1.53579989 
      250   2   -14.71899894  8.81916937  0.00146331 
      251   1   -13.24329904  10.29339926  1.53752989 
      252   1   -10.29509926  4.40537968 -1.53764989 
      253   2   -11.76849915  5.87624958  0.00196670 
      254   1   -10.29469925  7.34817947  1.54039989 
      255   1   -7.35019947  1.46776989 -1.54128989 
      256   2   -8.82171936  2.93635979  0.00155320 
      257   1   -7.35013947  4.40702968  1.54211989 
      258   1   -4.40842968 -1.46878989 -1.54282989 
      259   2   -5.87900957 -0.00000000 -0.00000000 
      260   1   -4.40842968  1.46878989  1.54282989 
      261   1   -1.46878989 -4.40842968 -1.54282989 
      262   2   -2.93760979 -2.93760979 -0.00055162 
      263   1   -1.46859990 -1.46859990  1.54389989 
      264   1    1.46776989 -7.35019947 -1.54128989 
      265   2   -0.00000000 -5.87900957 -0.00000000 
      266   1    1.46878989 -4.40842968  1.54282989 
      267   1    4.40537968 -10.29509926 -1.53764989 
      268   2    2.93635979 -8.82171936  0.00155320 
      269   1    4.40702968 -7.35013947  1.54211989 
      270   1    7.34672947 -13.24339905 -1.53579989 
      271   2    5.87624958 -11.76849915  0.00196670 
      272   1    7.34817947 -10.29469925  1.54039989 
      273   1    10.29169926 -16.19509883 -1.53401989 
      274   2    8.81916937 -14.71899894  0.00146331 
      275   1    10.29339926 -13.24329904  1.53752989 
      276   1    13.23969904 -19.15199862 -1.53240989 
      277   2    11.76489915 -17.67409872  0.00126130 
      278   1    13.24059904 -16.19469883  1.53498989 
      279   1    16.18949883 -22.11329840 -1.53098989 
      280   2    14.71399894 -20.63389851  0.00201146 
      281   1    16.18989883 -19.14949862  1.53350989 
      282   1    19.14169862 -25.07929819 -1.52939989 
      283   2    17.66489873 -23.59729830  0.00343130 
      284   1    19.14329862 -22.10899840  1.53284989 
      285   1    22.09709840 -28.05429797 -1.52895989 
      286   2    20.62009851 -26.56759808  0.00379360 
      287   1    22.10059840 -25.07349819  1.53194989 
      288   2    23.57759830 -29.54919787  0.00288403 
      289   1    25.06169819 -28.04669797  1.52850989 
      290   1   -28.03709797  28.03709797 -1.52989989 
      291   1   -25.06719819  25.06719819 -1.52950989 
      292   2   -26.55329808  26.55329808  0.00379770 
      293   1   -25.06169819  28.04669797  1.52850989 
      294   1   -22.10559840  22.10559840 -1.52895989 
      295   2   -23.58699830  23.58699830  0.00473973 
      296   1   -22.10059840  25.07349819  1.53194989 
      297   1   -19.14719862  19.14719862 -1.52920989 
      298   2   -20.62699851  20.62699851  0.00388258 
      299   1   -19.14329862  22.10899840  1.53284989 
      300   1   -16.19179883  16.19179883 -1.53280989 
      301   2   -17.66899872  17.66899872  0.00227922 
      302   1   -16.18989883  19.14949862  1.53350989 
      303   1   -13.24069905  13.24069905 -1.53358989 
      304   2   -14.71639894  14.71639894  0.00155938 
      305   1   -13.24059904  16.19469883  1.53498989 
      306   1   -10.29259926  10.29259926 -1.53542989 
      307   2   -11.76639915  11.76639915  0.00197006 
      308   1   -10.29339926  13.24329904  1.53752989 
      309   1   -7.34837947  7.34837947 -1.53776989 
      310   2   -8.81986936  8.81986936  0.00264966 
      311   1   -7.34817947  10.29469925  1.54039989 
      312   1   -4.40725968  4.40725968 -1.54044989 
      313   2   -5.87775958  5.87775958  0.00217615 
      314   1   -4.40702968  7.35013947  1.54211989 
      315   1   -1.46859990  1.46859990 -1.54389989 
      316   2   -2.93760979  2.93760979  0.00055162 
      317   1   -1.46878989  4.40842968  1.54282989 
      318   1    1.46859990 -1.46859990 -1.54389989 
      319   2   -0.00000000 -0.00000000 -0.00000000 
      320   1    1.46859990  1.46859990  1.54389989 
      321   1    4.40725968 -4.40725968 -1.54044989 
      322   2    2.93760979 -2.93760979  0.00055162 
      323   1    4.40842968 -1.46878989  1.54282989 
      324   1    7.34837947 -7.34837947 -1.53776989 
      325   2    5.87775958 -5.87775958  0.00217615 
      326   1    7.35013947 -4.40702968  1.54211989 
      327   1    10.29259926 -10.29259926 -1.53542989 
      328   2    8.81986936 -8.81986936  0.00264966 
      329   1    10.29469925 -7.34817947  1.54039989 
      330   1    13.24069905 -13.24069905 -1.53358989 
      331   2    11.76639915 -11.76639915  0.00197006 
      332   1    13.24329904 -10.29339926  1.53752989 
      333   1    16.19179883 -16.19179883 -1.53280989 
      334   2    14.71639894 -14.71639894  0.00155938 
      335   1    16.19469883 -13.24059904  1.53498989 
      336   1    19.14719862 -19.14719862 -1.52920989 
      337   2    17.66899872 -17.66899872  0.00227922 
      338   1    19.14949862 -16.18989883  1.53350989 
      339   1    22.10559840 -22.10559840 -1.52895989 
      340   2    20.62699851 -20.62699851  0.00388258 
      341   1    22.10899840 -19.14329862  1.53284989 
      342   1    25.06719819 -25.06719819 -1.52950989 
      343   2    23.58699830 -23.58699830  0.00473973 
      344   1    25.07349819 -22.10059840  1.53194989 
      345   1    28.03709797 -28.03709797 -1.52989989 
      346   2    26.55329808 -26.55329808  0.00379770 
      347   1    28.04669797 -25.06169819  1.52850989 
      348   1   -22.09709840  28.05429797 -1.52895989 
      349   2   -23.57759830  29.54919787  0.00288403 
      350   1   -19.14169862  25.07929819 -1.52939989 
      351   2   -20.62009851  26.56759808  0.00379360 
      352   1   -19.13859862  28.06189797  1.52990989 
      353   1   -16.18949883  22.11329840 -1.53098989 
      354   2   -17.66489873  23.59729830  0.00343130 
      355   1   -16.18659883  25.08479819  1.53312989 
      356   1   -13.23969904  19.15199862 -1.53240989 
      357   2   -14.71399894  20.63389851  0.00201146 
      358   1   -13.23799905  22.11789840  1.53332989 
      359   1   -10.29169926  16.19509883 -1.53401989 
      360   2   -11.76489915  17.67409872  0.00126130 
      361   1   -10.29159925  19.15609862  1.53392989 
      362   1   -7.34672947  13.24339905 -1.53579989 
      363   2   -8.81916937  14.71899894  0.00146331 
      364   1   -7.34856947  16.19769883  1.53698989 
      365   1   -4.40537968  10.29509926 -1.53764989 
      366   2   -5.87624958  11.76849915  0.00196670 
      367   1   -4.40664968  13.24559904  1.53933989 
      368   1   -1.46776989  7.35019947 -1.54128989 
      369   2   -2.93635979  8.82171936  0.00155320 
      370   1   -1.46837990  10.29619925  1.54125989 
      371   1    1.46878989  4.40842968 -1.54282989 
      372   2   -0.00000000  5.87900957  0.00000000 
      373   1    1.46776989  7.35019947  1.54128989 
      374   1    4.40842968  1.46878989 -1.54282989 
      375   2    2.93760979  2.93760979 -0.00055162 
      376   1    4.40725968  4.40725968  1.54044989 
      377   1    7.35019947 -1.46776989 -1.54128989 
      378   2    5.87900957 -0.00000000  0.00000000 
      379   1    7.35019947  1.46776989  1.54128989 
      380   1    10.29509926 -4.40537968 -1.53764989 
      381   2    8.82171936 -2.93635979  0.00155320 
      382   1    10.29619925 -1.46837990  1.54125989 
      383   1    13.24339905 -7.34672947 -1.53579989 
      384   2    11.76849915 -5.87624958  0.00196670 
      385   1    13.24559904 -4.40664968  1.53933989 
      386   1    16.19509883 -10.29169926 -1.53401989 
      387   2    14.71899894 -8.81916937  0.00146331 
      388   1    16.19769883 -7.34856947  1.53698989 
      389   1    19.15199862 -13.23969904 -1.53240989 
      390   2    17.67409872 -11.76489915  0.00126130 
      391   1    19.15609862 -10.29159925  1.53392989 
      392   1    22.11329840 -16.18949883 -1.53098989 
      393   2    20.63389851 -14.71399894  0.00201146 
      394   1    22.11789840 -13.23799905  1.53332989 
      395   1    25.07929819 -19.14169862 -1.52939989 
      396   2    23.59729830 -17.66489873  0.00343130 
      397   1    25.08479819 -16.18659883  1.53312989 
      398   1    28.05429797 -22.09709840 -1.52895989 
      399   2    26.56759808 -20.62009851  0.00379360 
      400   1    28.06189797 -19.13859862  1.52990989 
      401   2    29.54919787 -23.57759830  0.00288403 
      402   1   -16.18679883  28.06679798 -1.53039989 
      403   2   -17.66159873  29.56519787  0.00199489 
      404   1   -13.23889904  25.08839819 -1.53212989 
      405   2   -14.71189894  26.57919808  0.00227557 
      406   1   -13.23619904  28.07259798  1.53171989 
      407   1   -10.29229926  22.12019840 -1.53389989 
      408   2   -11.76409915  23.60609830  0.00118736 
      409   1   -10.29049926  25.09329819  1.53344989 
      410   1   -7.34819947  19.15629862 -1.53440989 
      411   2   -8.81887937  20.64029851  0.00052544 
      412   1   -7.34757947  22.12369840  1.53480989 
      413   1   -4.40654968  16.19809883 -1.53628989 
      414   2   -5.87745958  17.67699872  0.00070985 
      415   1   -4.40765968  19.15859861  1.53551989 
      416   1   -1.46722989  13.24579904 -1.53917989 
      417   2   -2.93634979  14.72179894  0.00082829 
      418   1   -1.46835989  16.20019883  1.53864989 
      419   1    1.46837990  10.29619925 -1.54125989 
      420   2   -0.00000000  11.76969915  0.00000000 
      421   1    1.46722989  13.24579904  1.53917989 
      422   1    4.40702968  7.35013947 -1.54211989 
      423   2    2.93635979  8.82171936 -0.00155320 
      424   1    4.40537968  10.29509926  1.53764989 
      425   1    7.35013947  4.40702968 -1.54211989 
      426   2    5.87775958  5.87775958 -0.00217615 
      427   1    7.34837947  7.34837947  1.53776989 
      428   1    10.29619925  1.46837990 -1.54125989 
      429   2    8.82171936  2.93635979 -0.00155319 
      430   1    10.29509926  4.40537968  1.53764989 
      431   1    13.24579904 -1.46722989 -1.53917989 
      432   2    11.76969915  0.00000000  0.00000000 
      433   1    13.24579904  1.46722989  1.53917989 
      434   1    16.19809883 -4.40654968 -1.53628989 
      435   2    14.72179894 -2.93634979  0.00082830 
      436   1    16.20019883 -1.46835989  1.53864989 
      437   1    19.15629862 -7.34819947 -1.53440989 
      438   2    17.67699872 -5.87745958  0.00070985 
      439   1    19.15859861 -4.40765968  1.53551989 
      440   1    22.12019840 -10.29229926 -1.53389989 
      441   2    20.64029851 -8.81887937  0.00052544 
      442   1    22.12369840 -7.34757947  1.53480989 
      443   1    25.08839819 -13.23889904 -1.53212989 
      444   2    23.60609830 -11.76409915  0.00118736 
      445   1    25.09329819 -10.29049926  1.53344989 
      446   1    28.06679798 -16.18679883 -1.53039989 
      447   2    26.57919808 -14.71189894  0.00227557 
      448   1    28.07259798 -13.23619904  1.53171989 
      449   2    29.56519787 -17.66159873  0.00199489 
      450   1   -10.29199925  28.07469797 -1.53284989 
      451   2   -11.76339915  29.57489787  0.00075776 
      452   1   -7.34843947  25.09459819 -1.53437989 
      453   2   -8.81864936  26.58669808  0.00060017 
      454   1   -7.34747947  28.07889797  1.53340989 
      455   1   -4.40759968  22.12309840 -1.53535989 
      456   2   -5.87704958  23.61049829 -0.00010604 
      457   1   -4.40687968  25.09609819  1.53472989 
      458   1   -1.46851989  19.15849862 -1.53659989 
      459   2   -2.93739979  20.64169851  0.00003656 
      460   1   -1.46816989  22.12379840  1.53621989 
      461   1    1.46835989  16.20019883 -1.53864989 
      462   2    0.00000000  17.67899872  0.00000000 
      463   1    1.46851989  19.15849862  1.53659989 
      464   1    4.40664968  13.24559904 -1.53933989 
      465   2    2.93634979  14.72179894 -0.00082829 
      466   1    4.40654968  16.19809883  1.53628989 
      467   1    7.34817947  10.29469925 -1.54039989 
      468   2    5.87624958  11.76849915 -0.00196670 
      469   1    7.34672947  13.24339905  1.53579989 
      470   1    10.29469925  7.34817947 -1.54039989 
      471   2    8.81986936  8.81986936 -0.00264966 
      472   1    10.29259926  10.29259926  1.53542989 
      473   1    13.24559904  4.40664968 -1.53933989 
      474   2    11.76849915  5.87624958 -0.00196670 
      475   1    13.24339905  7.34672947  1.53579989 
      476   1    16.20019883  1.46835989 -1.53864989 
      477   2    14.72179894  2.93634979 -0.00082829 
      478   1    16.19809883  4.40654968  1.53628989 
      479   1    19.15849862 -1.46851989 -1.53659989 
      480   2    17.67899872  0.00000000  0.00000000 
      481   1    19.15849862  1.46851989  1.53659989 
      482   1    22.12309840 -4.40759968 -1.53535989 
      483   2    20.64169851 -2.93739979  0.00003656 
      484   1    22.12379840 -1.46816989  1.53621989 
      485   1    25.09459819 -7.34843947 -1.53437989 
      486   2    23.61049829 -5.87704958 -0.00010604 
      487   1    25.09609819 -4.40687968  1.53472989 
      488   1    28.07469797 -10.29199925 -1.53284989 
      489   2    26.58669808 -8.81864936  0.00060017 
      490   1    28.07889797 -7.34747947  1.53340989 
      491   2    29.57489787 -11.76339915  0.00075776 
      492   1   -4.40767968  28.07939797 -1.53352989 
      493   2   -5.87753958  29.58099787  0.00025650 
      494   1   -1.46874990  25.09539819 -1.53571989 
      495   2   -2.93718979  26.58849808 -0.00016300 
      496   1   -1.46842989  28.07969797  1.53476989 
      497   1    1.46816989  22.12379840 -1.53621989 
      498   2    0.00000000  23.61039830  0.00000000 
      499   1    1.46874990  25.09539819  1.53571989 
      500   1    4.40765968  19.15859861 -1.53551989 
      501   2    2.93739979  20.64169851 -0.00003656 
      502   1    4.40759968  22.12309840  1.53535989 
      503   1    7.34856947  16.19769883 -1.53698989 
      504   2    5.87745958  17.67699872 -0.00070985 
      505   1    7.34819947  19.15629862  1.53440989 
      506   1    10.29339926  13.24329904 -1.53752989 
      507   2    8.81916937  14.71899894 -0.00146331 
      508   1    10.29169926  16.19509883  1.53401989 
      509   1    13.24329904  10.29339926 -1.53752989 
      510   2    11.76639915  11.76639915 -0.00197006 
      511   1    13.24069905  13.24069905  1.53358989 
      512   1    16.19769883  7.34856947 -1.53698989 
      513   2    14.71899894  8.81916937 -0.00146331 
      514   1    16.19509883  10.29169926  1.53401989 
      515   1    19.15859861  4.40765968 -1.53551989 
      516   2    17.67699872  5.87745958 -0.00070985 
      517   1    19.15629862  7.34819947  1.53440989 
      518   1    22.12379840  1.46816989 -1.53621989 
      519   2    20.64169851  2.93739979 -0.00003656 
      520   1    22.12309840  4.40759968  1.53535989 
      521   1    25.09539819 -1.46874990 -1.53571989 
      522   2    23.61039830  0.00000000  0.00000000 
      523   1    25.09539819  1.46874990  1.53571989 
      524   1    28.07939797 -4.40767968 -1.53352989 
      525   2    26.58849808 -2.93718979 -0.00016300 
      526   1    28.07969797 -1.46842989  1.53476989 
      527   2    29.58099787 -5.87753958  0.00025650 
      528   1    1.46842989  28.07969797 -1.53476989 
      529   2    0.00000000  29.58089787  0.00000000 
      530   1    4.40687968  25.09609819 -1.53472989 
      531   2    2.93718979  26.58849808  0.00016300 
      532   1    4.40767968  28.07939797  1.53352989 
      533   1    7.34757947  22.12369840 -1.53480989 
      534   2    5.87704958  23.61049829  0.00010604 
      535   1    7.34843947  25.09459819  1.53437989 
      536   1    10.29159925  19.15609862 -1.53392989 
      537   2    8.81887937  20.64029851 -0.00052544 
      538   1    10.29229926  22.12019840  1.53389989 
      539   1    13.24059904  16.19469883 -1.53498989 
      540   2    11.76489915  17.67409872 -0.00126130 
      541   1    13.23969904  19.15199862  1.53240989 
      542   1    16.19469883  13.24059904 -1.53498989 
      543   2    14.71639894  14.71639894 -0.00155938 
      544   1    16.19179883  16.19179883  1.53280989 
      545   1    19.15609862  10.29159925 -1.53392989 
      546   2    17.67409872  11.76489915 -0.00126130 
      547   1    19.15199862  13.23969904  1.53240989 
      548   1    22.12369840  7.34757947 -1.53480989 