LAMMPS configuration data file

  2347 atoms

  5 atom types

  -39.281199  39.281199  xlo xhi
  -39.281199  39.281199  ylo yhi
  -39.281199  39.281199  zlo zhi

 Masses

  1   32.065
  2   112.411
  3   78.960
  4   1.000
  5   1.000

 Atoms

        1   1   -17.73589872 -11.83149914  5.90832957 
        2   1   -17.73639872 -8.87162936  8.87162936 
        3   1   -17.73589872 -5.90832957  11.83149914 
        4   1   -14.79439893 -14.79439893  5.90986957 
        5   2   -16.25129883 -13.29899904  7.36925947 
        6   1   -14.80869893 -11.85029914  8.87326936 
        7   2   -16.24519883 -10.33199925  10.33199925 
        8   1   -14.80869893 -8.87326936  11.85029914 
        9   2   -16.25129883 -7.36925947  13.29899904 
       10   1   -14.79439893 -5.90986957  14.79439893 
       11   1   -11.83149914 -17.73589872  5.90832957 
       12   2   -13.29899904 -16.25129883  7.36925947 
       13   1   -11.85029914 -14.80869893  8.87326936 
       14   2   -13.30019904 -13.30019904  10.33029925 
       15   1   -11.86049915 -11.86049915  11.86049915 
       16   2   -13.30019904 -10.33029925  13.30019904 
       17   1   -11.85029914 -8.87326936  14.80869893 
       18   2   -13.29899904 -7.36925947  16.25129883 
       19   1   -11.83149914 -5.90832957  17.73589872 
       20   1   -8.87162936 -17.73639872  8.87162936 
       21   2   -10.33199925 -16.24519883  10.33199925 
       22   1   -8.87326936 -14.80869893  11.85029914 
       23   2   -10.33029925 -13.30019904  13.30019904 
       24   1   -8.87326936 -11.85029914  14.80869893 
       25   2   -10.33199925 -10.33199925  16.24519883 
       26   1   -8.87162936 -8.87162936  17.73639872 
       27   1   -5.90832957 -17.73589872  11.83149914 
       28   2   -7.36925947 -16.25129883  13.29899904 
       29   1   -5.90986957 -14.79439893  14.79439893 
       30   2   -7.36925947 -13.29899904  16.25129883 
       31   1   -5.90832957 -11.83149914  17.73589872 
       32   1   -17.76599872 -11.86339914 -0.01925360 
       33   2   -19.21709862 -10.36609925  1.45184990 
       34   1   -17.79789871 -8.90568936  2.96161978 
       35   2   -19.23049861 -7.40117946  4.43069968 
       36   1   -17.80149872 -5.93801957  5.93801957 
       37   2   -19.23049861 -4.43069968  7.40117946 
       38   1   -17.79789871 -2.96161978  8.90568936 
       39   2   -19.21709862 -1.45184990  10.36609925 
       40   1   -17.76599872  0.01925360  11.86339914 
       41   1   -14.82259893 -14.82259893 -0.02077240 
       42   2   -16.28549883 -13.33329904  1.44841990 
       43   1   -14.85939892 -11.89349914  2.97429979 
       44   2   -16.30939882 -10.37649925  4.42362968 
       45   1   -14.87949893 -8.92979935  5.94242957 
       46   2   -16.30799882 -7.40423946  7.40423946 
       47   1   -14.87949893 -5.94242957  8.92979935 
       48   2   -16.30939882 -4.42362968  10.37649925 
       49   1   -14.85939892 -2.97429979  11.89349914 
       50   2   -16.28549883 -1.44841990  13.33329904 
       51   1   -14.82259893  0.02077240  14.82259893 
       52   1   -11.86339914 -17.76599872 -0.01925360 
       53   2   -13.33329904 -16.28549883  1.44841990 
       54   1   -11.89349914 -14.85939892  2.97429979 
       55   2   -13.35659904 -13.35659904  4.42423968 
       56   1   -11.91829914 -11.91829914  5.93588957 
       57   2   -13.39439903 -10.42039925  7.37114947 
       58   3   -11.93169914 -8.92732936  8.92732936 
       59   2   -13.39439903 -7.37114947  10.42039925 
       60   1   -11.91829914 -5.93588957  11.91829914 
       61   2   -13.35659904 -4.42423968  13.35659904 
       62   1   -11.89349914 -2.97429979  14.85939892 
       63   2   -13.33329904 -1.44841990  16.28549883 
       64   1   -11.86339914  0.01925360  17.76599872 
       65   2   -10.36609925 -19.21709862  1.45184990 
       66   1   -8.90568936 -17.79789871  2.96161978 
       67   2   -10.37649925 -16.30939882  4.42362968 
       68   1   -8.92979935 -14.87949893  5.94242957 
       69   2   -10.42039925 -13.39439903  7.37114947 
       70   3   -8.92732936 -11.93169914  8.92732936 
       71   2   -10.41999925 -10.41999925  10.41999925 
       72   3   -8.92732936 -8.92732936  11.93169914 
       73   2   -10.42039925 -7.37114947  13.39439903 
       74   1   -8.92979935 -5.94242957  14.87949893 
       75   2   -10.37649925 -4.42362968  16.30939882 
       76   1   -8.90568936 -2.96161978  17.79789871 
       77   2   -10.36609925 -1.45184990  19.21709862 
       78   2   -7.40117946 -19.23049861  4.43069968 
       79   1   -5.93801957 -17.80149872  5.93801957 
       80   2   -7.40423946 -16.30799882  7.40423946 
       81   1   -5.94242957 -14.87949893  8.92979935 
       82   2   -7.37114947 -13.39439903  10.42039925 
       83   1   -5.93588957 -11.91829914  11.91829914 
       84   2   -7.37114947 -10.42039925  13.39439903 
       85   1   -5.94242957 -8.92979935  14.87949893 
       86   2   -7.40423946 -7.40423946  16.30799882 
       87   1   -5.93801957 -5.93801957  17.80149872 
       88   2   -7.40117946 -4.43069968  19.23049861 
       89   2   -4.43069968 -19.23049861  7.40117946 
       90   1   -2.96161978 -17.79789871  8.90568936 
       91   2   -4.42362968 -16.30939882  10.37649925 
       92   1   -2.97429979 -14.85939892  11.89349914 
       93   2   -4.42423968 -13.35659904  13.35659904 
       94   1   -2.97429979 -11.89349914  14.85939892 
       95   2   -4.42362968 -10.37649925  16.30939882 
       96   1   -2.96161978 -8.90568936  17.79789871 
       97   2   -4.43069968 -7.40117946  19.23049861 
       98   2   -1.45184990 -19.21709862  10.36609925 
       99   1    0.01925360 -17.76599872  11.86339914 
      100   2   -1.44841990 -16.28549883  13.33329904 
      101   1    0.02077240 -14.82259893  14.82259893 
      102   2   -1.44841990 -13.33329904  16.28549883 
      103   1    0.01925360 -11.86339914  17.76599872 
      104   2   -1.45184990 -10.36609925  19.21709862 
      105   1   -17.75669872 -11.85159915 -5.94079957 
      106   1   -17.80279872 -8.92059935 -2.99605979 
      107   2   -19.24909861 -7.42502947 -1.51274989 
      108   1   -17.84789871 -5.94209957 -0.01364380 
      109   2   -19.27229861 -4.44678968  1.46927989 
      110   1   -17.85629871 -2.96511978  2.96511978 
      111   2   -19.27229861 -1.46927989  4.44678968 
      112   1   -17.84789871  0.01364370  5.94209957 
      113   2   -19.24909861  1.51274989  7.42502947 
      114   1   -17.80279872  2.99605979  8.92059935 
      115   1   -17.75669872  5.94079957  11.85159915 
      116   1   -14.81189893 -14.81189893 -5.94693957 
      117   2   -16.29999882 -13.34899904 -4.48724967 
      118   1   -14.86269893 -11.90329914 -3.01521978 
      119   2   -16.35559882 -10.43989925 -1.56153989 
      120   3   -14.91149892 -8.94889935 -0.01511460 
      121   2   -16.41859882 -7.43180946  1.45761990 
      122   3   -14.92649892 -5.96244957  2.97687978 
      123   2   -16.42609881 -4.44648968  4.44648968 
      124   3   -14.92649892 -2.97687978  5.96244957 
      125   2   -16.41859882 -1.45761990  7.43180946 
      126   3   -14.91149892  0.01511460  8.94889935 
      127   2   -16.35559882  1.56153989  10.43989925 
      128   1   -14.86269893  3.01521978  11.90329914 
      129   2   -16.29999882  4.48724967  13.34899904 
      130   1   -14.81189893  5.94693957  14.81189893 
      131   1   -11.85159915 -17.75669872 -5.94079957 
      132   2   -13.34899904 -16.29999882 -4.48724967 
      133   1   -11.90329914 -14.86269893 -3.01521978 
      134   2   -13.40579903 -13.40579903 -1.56507989 
      135   3   -11.93819914 -11.93819914 -0.01325790 
      136   2   -13.43499903 -10.45379925  1.49738989 
      137   3   -11.94539914 -8.96166935  2.99312978 
      138   2   -13.44769903 -7.47333946  4.48644968 
      139   3   -11.95029914 -5.96813957  5.96813957 
      140   2   -13.44769903 -4.48644968  7.47333946 
      141   3   -11.94539914 -2.99312978  8.96166935 
      142   2   -13.43499903 -1.49738989  10.45379925 
      143   3   -11.93819914  0.01325790  11.93819914 
      144   2   -13.40579903  1.56507989  13.40579903 
      145   1   -11.90329914  3.01521978  14.86269893 
      146   2   -13.34899904  4.48724967  16.29999882 
      147   1   -11.85159915  5.94079957  17.75669872 
      148   1   -8.92059935 -17.80279872 -2.99605979 
      149   2   -10.43989925 -16.35559882 -1.56153989 
      150   3   -8.94889935 -14.91149892 -0.01511460 
      151   2   -10.45379925 -13.43499903  1.49738989 
      152   3   -8.96166935 -11.94539914  2.99312978 
      153   2   -10.46549924 -10.46549924  4.49385968 
      154   3   -8.95680935 -8.95680935  5.96176957 
      155   2   -10.43579925 -7.44790946  7.44790946 
      156   3   -8.95680935 -5.96176957  8.95680935 
      157   2   -10.46549924 -4.49385968  10.46549924 
      158   3   -8.96166935 -2.99312978  11.94539914 
      159   2   -10.45379925 -1.49738989  13.43499903 
      160   3   -8.94889935  0.01511460  14.91149892 
      161   2   -10.43989925  1.56153989  16.35559882 
      162   1   -8.92059935  2.99605979  17.80279872 
      163   2   -7.42502947 -19.24909861 -1.51274989 
      164   1   -5.94209957 -17.84789871 -0.01364380 
      165   2   -7.43180946 -16.41859882  1.45761990 
      166   3   -5.96244957 -14.92649892  2.97687978 
      167   2   -7.47333946 -13.44769903  4.48644968 
      168   3   -5.96813957 -11.95029914  5.96813957 
      169   2   -7.44790946 -10.43579925  7.44790946 
      170   3   -5.96176957 -8.95680935  8.95680935 
      171   2   -7.44790946 -7.44790946  10.43579925 
      172   3   -5.96813957 -5.96813957  11.95029914 
      173   2   -7.47333946 -4.48644968  13.44769903 
      174   3   -5.96244957 -2.97687978  14.92649892 
      175   2   -7.43180946 -1.45761990  16.41859882 
      176   1   -5.94209957  0.01364370  17.84789871 
      177   2   -7.42502947  1.51274989  19.24909861 
      178   2   -4.44678968 -19.27229861  1.46927989 
      179   1   -2.96511978 -17.85629871  2.96511978 
      180   2   -4.44648968 -16.42609881  4.44648968 
      181   3   -2.97687978 -14.92649892  5.96244957 
      182   2   -4.48644968 -13.44769903  7.47333946 
      183   3   -2.99312978 -11.94539914  8.96166935 
      184   2   -4.49385968 -10.46549924  10.46549924 
      185   3   -2.99312978 -8.96166935  11.94539914 
      186   2   -4.48644968 -7.47333946  13.44769903 
      187   3   -2.97687978 -5.96244957  14.92649892 
      188   2   -4.44648968 -4.44648968  16.42609881 
      189   1   -2.96511978 -2.96511978  17.85629871 
      190   2   -4.44678968 -1.46927989  19.27229861 
      191   2   -1.46927989 -19.27229861  4.44678968 
      192   1    0.01364370 -17.84789871  5.94209957 
      193   2   -1.45761990 -16.41859882  7.43180946 
      194   3    0.01511460 -14.91149892  8.94889935 
      195   2   -1.49738989 -13.43499903  10.45379925 
      196   3    0.01325790 -11.93819914  11.93819914 
      197   2   -1.49738989 -10.45379925  13.43499903 
      198   3    0.01511460 -8.94889935  14.91149892 
      199   2   -1.45761990 -7.43180946  16.41859882 
      200   1    0.01364370 -5.94209957  17.84789871 
      201   2   -1.46927989 -4.44678968  19.27229861 
      202   2    1.51274989 -19.24909861  7.42502947 
      203   1    2.99605979 -17.80279872  8.92059935 
      204   2    1.56153989 -16.35559882  10.43989925 
      205   1    3.01521978 -14.86269893  11.90329914 
      206   2    1.56507989 -13.40579903  13.40579903 
      207   1    3.01521978 -11.90329914  14.86269893 
      208   2    1.56153989 -10.43989925  16.35559882 
      209   1    2.99605979 -8.92059935  17.80279872 
      210   2    1.51274989 -7.42502947  19.24909861 
      211   1    5.94079957 -17.75669872  11.85159915 
      212   2    4.48724967 -16.29999882  13.34899904 
      213   1    5.94693957 -14.81189893  14.81189893 
      214   2    4.48724967 -13.34899904  16.29999882 
      215   1    5.94079957 -11.85159915  17.75669872 
      216   1   -17.76029872 -8.89868936 -8.89868936 
      217   1   -17.80749871 -5.96033957 -5.96033957 
      218   2   -19.25539861 -4.47069968 -4.47069968 
      219   1   -17.85509871 -2.97853979 -2.97853979 
      220   2   -19.28119861 -1.48918989 -1.48918989 
      221   1   -17.86449871 -0.00000000 -0.00000000 
      222   2   -19.28119861  1.48918989  1.48918989 
      223   1   -17.85509871  2.97853979  2.97853979 
      224   2   -19.25539861  4.47069968  4.47069968 
      225   1   -17.80749871  5.96033957  5.96033957 
      226   1   -17.76029872  8.89868936  8.89868936 
      227   1   -14.83149893 -11.87609914 -8.91020936 
      228   2   -16.31389882 -10.40459925 -7.44855946 
      229   1   -14.88749892 -8.94858935 -5.97245957 
      230   2   -16.37659882 -7.48687946 -4.52045967 
      231   3   -14.92649892 -5.97287957 -2.99553978 
      232   2   -16.43679881 -4.47149968 -1.50609989 
      233   3   -14.94179892 -2.98187978 -0.00437369 
      234   2   -16.44549882 -1.48274989  1.48274989 
      235   3   -14.94179892  0.00437369  2.98187978 
      236   2   -16.43679881  1.50609989  4.47149968 
      237   3   -14.92649892  2.99553978  5.97287957 
      238   2   -16.37659882  4.52045967  7.48687946 
      239   1   -14.88749892  5.97245957  8.94858935 
      240   2   -16.31389882  7.44855946  10.40459925 
      241   1   -14.83149893  8.91020936  11.87609914 
      242   1   -11.87609914 -14.83149893 -8.91020936 
      243   2   -13.36689904 -13.36689904 -7.45381946 
      244   1   -11.92849914 -11.92849914 -5.96827957 
      245   2   -13.43049903 -10.46169924 -4.52988967 
      246   3   -11.94689914 -8.96721935 -3.00955978 
      247   2   -13.42329903 -7.46178946 -1.50772989 
      248   3   -11.93979914 -5.97139957 -0.00331128 
      249   2   -13.43569903 -4.47246968  1.48416989 
      250   3   -11.94489914 -2.98146978  2.98146978 
      251   2   -13.43569903 -1.48416989  4.47246968 
      252   3   -11.93979914  0.00331127  5.97139957 
      253   2   -13.42329903  1.50772989  7.46178946 
      254   3   -11.94689914  3.00955978  8.96721935 
      255   2   -13.43049903  4.52988967  10.46169924 
      256   1   -11.92849914  5.96827957  11.92849914 
      257   2   -13.36689904  7.45381946  13.36689904 
      258   1   -11.87609914  8.91020936  14.83149893 
      259   1   -8.89868936 -17.76029872 -8.89868936 
      260   2   -10.40459925 -16.31389882 -7.44855946 
      261   1   -8.94858935 -14.88749892 -5.97245957 
      262   2   -10.46169924 -13.43049903 -4.52988967 
      263   3   -8.96721935 -11.94689914 -3.00955978 
      264   2   -10.44779924 -10.44779924 -1.50736989 
      265   3   -8.95921935 -8.95921935 -0.00254690 
      266   2   -10.45239924 -7.46772946  1.49447989 
      267   3   -8.95996936 -5.97091957  2.98411979 
      268   2   -10.45439925 -4.47576968  4.47576968 
      269   3   -8.95996936 -2.98411979  5.97091957 
      270   2   -10.45239924 -1.49447989  7.46772946 
      271   3   -8.95921935  0.00254690  8.95921935 
      272   2   -10.44779924  1.50736989  10.44779924 
      273   3   -8.96721935  3.00955978  11.94689914 
      274   2   -10.46169924  4.52988967  13.43049903 
      275   1   -8.94858935  5.97245957  14.88749892 
      276   2   -10.40459925  7.44855946  16.31389882 
      277   1   -8.89868936  8.89868936  17.76029872 
      278   1   -5.96033957 -17.80749871 -5.96033957 
      279   2   -7.48687946 -16.37659882 -4.52045967 
      280   3   -5.97287957 -14.92649892 -2.99553978 
      281   2   -7.46178946 -13.42329903 -1.50772989 
      282   3   -5.97139957 -11.93979914 -0.00331128 
      283   2   -7.46772946 -10.45239924  1.49447989 
      284   3   -5.97091957 -8.95996936  2.98411979 
      285   2   -7.46370946 -7.46370946  4.47285968 
      286   3   -5.97183957 -5.97183957  5.97183957 
      287   2   -7.46370946 -4.47285968  7.46370946 
      288   3   -5.97091957 -2.98411979  8.95996936 
      289   2   -7.46772946 -1.49447989  10.45239924 
      290   3   -5.97139957  0.00331127  11.93979914 
      291   2   -7.46178946  1.50772989  13.42329903 
      292   3   -5.97287957  2.99553978  14.92649892 
      293   2   -7.48687946  4.52045967  16.37659882 
      294   1   -5.96033957  5.96033957  17.80749871 
      295   2   -4.47069968 -19.25539861 -4.47069968 
      296   1   -2.97853979 -17.85509871 -2.97853979 
      297   2   -4.47149968 -16.43679881 -1.50609989 
      298   3   -2.98187978 -14.94179892 -0.00437369 
      299   2   -4.47246968 -13.43569903  1.48416989 
      300   3   -2.98146978 -11.94489914  2.98146978 
      301   2   -4.47576968 -10.45439925  4.47576968 
      302   3   -2.98411979 -8.95996936  5.97091957 
      303   2   -4.47285968 -7.46370946  7.46370946 
      304   3   -2.98411979 -5.97091957  8.95996936 
      305   2   -4.47576968 -4.47576968  10.45439925 
      306   3   -2.98146978 -2.98146978  11.94489914 
      307   2   -4.47246968 -1.48416989  13.43569903 
      308   3   -2.98187978  0.00437369  14.94179892 
      309   2   -4.47149968  1.50609989  16.43679881 
      310   1   -2.97853979  2.97853979  17.85509871 
      311   2   -4.47069968  4.47069968  19.25539861 
      312   2   -1.48918989 -19.28119861 -1.48918989 
      313   1   -0.00000000 -17.86449871 -0.00000000 
      314   2   -1.48274989 -16.44549882  1.48274989 
      315   3    0.00437369 -14.94179892  2.98187978 
      316   2   -1.48416989 -13.43569903  4.47246968 
      317   3    0.00331127 -11.93979914  5.97139957 
      318   2   -1.49447989 -10.45239924  7.46772946 
      319   3    0.00254690 -8.95921935  8.95921935 
      320   2   -1.49447989 -7.46772946  10.45239924 
      321   3    0.00331127 -5.97139957  11.93979914 
      322   2   -1.48416989 -4.47246968  13.43569903 
      323   3    0.00437369 -2.98187978  14.94179892 
      324   2   -1.48274989 -1.48274989  16.44549882 
      325   1   -0.00000000 -0.00000000  17.86449871 
      326   2   -1.48918989  1.48918989  19.28119861 
      327   2    1.48918989 -19.28119861  1.48918989 
      328   1    2.97853979 -17.85509871  2.97853979 
      329   2    1.50609989 -16.43679881  4.47149968 
      330   3    2.99553978 -14.92649892  5.97287957 
      331   2    1.50772989 -13.42329903  7.46178946 
      332   3    3.00955978 -11.94689914  8.96721935 
      333   2    1.50736989 -10.44779924  10.44779924 
      334   3    3.00955978 -8.96721935  11.94689914 
      335   2    1.50772989 -7.46178946  13.42329903 
      336   3    2.99553978 -5.97287957  14.92649892 
      337   2    1.50609989 -4.47149968  16.43679881 
      338   1    2.97853979 -2.97853979  17.85509871 
      339   2    1.48918989 -1.48918989  19.28119861 
      340   2    4.47069968 -19.25539861  4.47069968 
      341   1    5.96033957 -17.80749871  5.96033957 
      342   2    4.52045967 -16.37659882  7.48687946 
      343   1    5.97245957 -14.88749892  8.94858935 
      344   2    4.52988967 -13.43049903  10.46169924 
      345   1    5.96827957 -11.92849914  11.92849914 
      346   2    4.52988967 -10.46169924  13.43049903 
      347   1    5.97245957 -8.94858935  14.88749892 
      348   2    4.52045967 -7.48687946  16.37659882 
      349   1    5.96033957 -5.96033957  17.80749871 
      350   2    4.47069968 -4.47069968  19.25539861 
      351   1    8.89868936 -17.76029872  8.89868936 
      352   2    7.44855946 -16.31389882  10.40459925 
      353   1    8.91020936 -14.83149893  11.87609914 
      354   2    7.45381946 -13.36689904  13.36689904 
      355   1    8.91020936 -11.87609914  14.83149893 
      356   2    7.44855946 -10.40459925  16.31389882 
      357   1    8.89868936 -8.89868936  17.76029872 
      358   1   -17.75669872 -5.94079957 -11.85159915 
      359   1   -17.80279872 -2.99605979 -8.92059935 
      360   2   -19.24909861 -1.51274989 -7.42502947 
      361   1   -17.84789871 -0.01364370 -5.94209957 
      362   2   -19.27229861  1.46927989 -4.44678968 
      363   1   -17.85629871  2.96511978 -2.96511978 
      364   2   -19.27229861  4.44678968 -1.46927989 
      365   1   -17.84789871  5.94209957  0.01364370 
      366   2   -19.24909861  7.42502947  1.51274989 
      367   1   -17.80279872  8.92059935  2.99605979 
      368   1   -17.75669872  11.85159915  5.94079957 
      369   1   -14.83149893 -8.91020936 -11.87609914 
      370   2   -16.31389882 -7.44855946 -10.40459925 
      371   1   -14.88749892 -5.97245957 -8.94858935 
      372   2   -16.37659882 -4.52045967 -7.48687946 
      373   3   -14.92649892 -2.99553978 -5.97287957 
      374   2   -16.43679881 -1.50609989 -4.47149968 
      375   3   -14.94179892 -0.00437369 -2.98187978 
      376   2   -16.44549882  1.48274989 -1.48274989 
      377   3   -14.94179892  2.98187978  0.00437369 
      378   2   -16.43679881  4.47149968  1.50609989 
      379   3   -14.92649892  5.97287957  2.99553978 
      380   2   -16.37659882  7.48687946  4.52045967 
      381   1   -14.88749892  8.94858935  5.97245957 
      382   2   -16.31389882  10.40459925  7.44855946 
      383   1   -14.83149893  11.87609914  8.91020936 
      384   1   -11.89179914 -11.89179914 -11.89179914 
      385   2   -13.40519903 -10.44639925 -10.44639925 
      386   3   -11.94149914 -8.94445936 -8.94445936 
      387   2   -13.47609902 -7.46188946 -7.46188946 
      388   3   -11.95359914 -5.97786957 -5.97786957 
      389   2   -13.43129903 -4.47850968 -4.47850968 
      390   3   -11.94229914 -2.98464978 -2.98464978 
      391   2   -13.44099903 -1.49286989 -1.49286989 
      392   3   -11.94669914 -0.00000000 -0.00000000 
      393   2   -13.44099903  1.49286989  1.49286989 
      394   3   -11.94229914  2.98464978  2.98464978 
      395   2   -13.43129903  4.47850968  4.47850968 
      396   3   -11.95359914  5.97786957  5.97786957 
      397   2   -13.47609902  7.46188946  7.46188946 
      398   3   -11.94149914  8.94445936  8.94445936 
      399   2   -13.40519903  10.44639925  10.44639925 
      400   1   -11.89179914  11.89179914  11.89179914 
      401   1   -8.91020936 -14.83149893 -11.87609914 
      402   2   -10.44639925 -13.40519903 -10.44639925 
      403   3   -8.94445936 -11.94149914 -8.94445936 
      404   2   -10.47359924 -10.47359924 -7.43644946 
      405   3   -8.96449935 -8.96449935 -5.97431957 
      406   2   -10.45289925 -7.46577946 -4.48599967 
      407   3   -8.95927935 -5.97410957 -2.98876978 
      408   2   -10.44739924 -4.47795968 -1.49402989 
      409   3   -8.95591936 -2.98538978 -0.00083565 
      410   2   -10.44899924 -1.49094989  1.49094989 
      411   3   -8.95591936  0.00083565  2.98538978 
      412   2   -10.44739924  1.49402989  4.47795968 
      413   3   -8.95927935  2.98876978  5.97410957 
      414   2   -10.45289925  4.48599967  7.46577946 
      415   3   -8.96449935  5.97431957  8.96449935 
      416   2   -10.47359924  7.43644946  10.47359924 
      417   3   -8.94445936  8.94445936  11.94149914 
      418   2   -10.44639925  10.44639925  13.40519903 
      419   1   -8.91020936  11.87609914  14.83149893 
      420   1   -5.94079957 -17.75669872 -11.85159915 
      421   2   -7.44855946 -16.31389882 -10.40459925 
      422   1   -5.97245957 -14.88749892 -8.94858935 
      423   2   -7.46188946 -13.47609902 -7.46188946 
      424   3   -5.97786957 -11.95359914 -5.97786957 
      425   2   -7.46577946 -10.45289925 -4.48599967 
      426   3   -5.97410957 -8.95927935 -2.98876978 
      427   2   -7.46572946 -7.46572946 -1.49411989 
      428   3   -5.97313957 -5.97313957 -0.00032227 
      429   2   -7.46494946 -4.47901968  1.49264989 
      430   3   -5.97282957 -2.98637979  2.98637979 
      431   2   -7.46494946 -1.49264989  4.47901968 
      432   3   -5.97313957  0.00032227  5.97313957 
      433   2   -7.46572946  1.49411989  7.46572946 
      434   3   -5.97410957  2.98876978  8.95927935 
      435   2   -7.46577946  4.48599967  10.45289925 
      436   3   -5.97786957  5.97786957  11.95359914 
      437   2   -7.46188946  7.46188946  13.47609902 
      438   1   -5.97245957  8.94858935  14.88749892 
      439   2   -7.44855946  10.40459925  16.31389882 
      440   1   -5.94079957  11.85159915  17.75669872 
      441   1   -2.99605979 -17.80279872 -8.92059935 
      442   2   -4.52045967 -16.37659882 -7.48687946 
      443   3   -2.99553978 -14.92649892 -5.97287957 
      444   2   -4.47850968 -13.43129903 -4.47850968 
      445   3   -2.98464978 -11.94229914 -2.98464978 
      446   2   -4.47795968 -10.44739924 -1.49402989 
      447   3   -2.98538978 -8.95591936 -0.00083565 
      448   2   -4.47901968 -7.46494946  1.49264989 
      449   3   -2.98637979 -5.97282957  2.98637979 
      450   2   -4.47886968 -4.47886968  4.47886968 
      451   3   -2.98637979 -2.98637979  5.97282957 
      452   2   -4.47901968 -1.49264989  7.46494946 
      453   3   -2.98538978  0.00083565  8.95591936 
      454   2   -4.47795968  1.49402989  10.44739924 
      455   3   -2.98464978  2.98464978  11.94229914 
      456   2   -4.47850968  4.47850968  13.43129903 
      457   3   -2.99553978  5.97287957  14.92649892 
      458   2   -4.52045967  7.48687946  16.37659882 
      459   1   -2.99605979  8.92059935  17.80279872 
      460   2   -1.51274989 -19.24909861 -7.42502947 
      461   1   -0.01364370 -17.84789871 -5.94209957 
      462   2   -1.50609989 -16.43679881 -4.47149968 
      463   3   -0.00437369 -14.94179892 -2.98187978 
      464   2   -1.49286989 -13.44099903 -1.49286989 
      465   3   -0.00000000 -11.94669914 -0.00000000 
      466   2   -1.49094989 -10.44899924  1.49094989 
      467   3    0.00083565 -8.95591936  2.98538978 
      468   2   -1.49264989 -7.46494946  4.47901968 
      469   3    0.00032227 -5.97313957  5.97313957 
      470   2   -1.49264989 -4.47901968  7.46494946 
      471   3    0.00083565 -2.98538978  8.95591936 
      472   2   -1.49094989 -1.49094989  10.44899924 
      473   3   -0.00000000 -0.00000000  11.94669914 
      474   2   -1.49286989  1.49286989  13.44099903 
      475   3   -0.00437369  2.98187978  14.94179892 
      476   2   -1.50609989  4.47149968  16.43679881 
      477   1   -0.01364380  5.94209957  17.84789871 
      478   2   -1.51274989  7.42502947  19.24909861 
      479   2    1.46927989 -19.27229861 -4.44678968 
      480   1    2.96511978 -17.85629871 -2.96511978 
      481   2    1.48274989 -16.44549882 -1.48274989 
      482   3    2.98187978 -14.94179892  0.00437369 
      483   2    1.49286989 -13.44099903  1.49286989 
      484   3    2.98464978 -11.94229914  2.98464978 
      485   2    1.49402989 -10.44739924  4.47795968 
      486   3    2.98876978 -8.95927935  5.97410957 
      487   2    1.49411989 -7.46572946  7.46572946 
      488   3    2.98876978 -5.97410957  8.95927935 
      489   2    1.49402989 -4.47795968  10.44739924 
      490   3    2.98464978 -2.98464978  11.94229914 
      491   2    1.49286989 -1.49286989  13.44099903 
      492   3    2.98187978 -0.00437369  14.94179892 
      493   2    1.48274989  1.48274989  16.44549882 
      494   1    2.96511978  2.96511978  17.85629871 
      495   2    1.46927989  4.44678968  19.27229861 
      496   2    4.44678968 -19.27229861 -1.46927989 
      497   1    5.94209957 -17.84789871  0.01364370 
      498   2    4.47149968 -16.43679881  1.50609989 
      499   3    5.97287957 -14.92649892  2.99553978 
      500   2    4.47850968 -13.43129903  4.47850968 
      501   3    5.97786957 -11.95359914  5.97786957 
      502   2    4.48599967 -10.45289925  7.46577946 
      503   3    5.97431957 -8.96449935  8.96449935 
      504   2    4.48599967 -7.46577946  10.45289925 
      505   3    5.97786957 -5.97786957  11.95359914 
      506   2    4.47850968 -4.47850968  13.43129903 
      507   3    5.97287957 -2.99553978  14.92649892 
      508   2    4.47149968 -1.50609989  16.43679881 
      509   1    5.94209957 -0.01364380  17.84789871 
      510   2    4.44678968  1.46927989  19.27229861 
      511   2    7.42502947 -19.24909861  1.51274989 
      512   1    8.92059935 -17.80279872  2.99605979 
      513   2    7.48687946 -16.37659882  4.52045967 
      514   1    8.94858935 -14.88749892  5.97245957 
      515   2    7.46188946 -13.47609902  7.46188946 
      516   3    8.94445936 -11.94149914  8.94445936 
      517   2    7.43644946 -10.47359924  10.47359924 
      518   3    8.94445936 -8.94445936  11.94149914 
      519   2    7.46188946 -7.46188946  13.47609902 
      520   1    8.94858935 -5.97245957  14.88749892 
      521   2    7.48687946 -4.52045967  16.37659882 
      522   1    8.92059935 -2.99605979  17.80279872 
      523   2    7.42502947 -1.51274989  19.24909861 
      524   1    11.85159915 -17.75669872  5.94079957 
      525   2    10.40459925 -16.31389882  7.44855946 
      526   1    11.87609914 -14.83149893  8.91020936 
      527   2    10.44639925 -13.40519903  10.44639925 
      528   1    11.89179914 -11.89179914  11.89179914 
      529   2    10.44639925 -10.44639925  13.40519903 
      530   1    11.87609914 -8.91020936  14.83149893 
      531   2    10.40459925 -7.44855946  16.31389882 
      532   1    11.85159915 -5.94079957  17.75669872 
      533   1   -17.76599872 -0.01925360 -11.86339914 
      534   2   -19.21709862  1.45184990 -10.36609925 
      535   1   -17.79789871  2.96161978 -8.90568936 
      536   2   -19.23049861  4.43069968 -7.40117946 
      537   1   -17.80149872  5.93801957 -5.93801957 
      538   2   -19.23049861  7.40117946 -4.43069968 
      539   1   -17.79789871  8.90568936 -2.96161978 
      540   2   -19.21709862  10.36609925 -1.45184990 
      541   1   -17.76599872  11.86339914  0.01925360 
      542   1   -14.81189893 -5.94693957 -14.81189893 
      543   2   -16.29999882 -4.48724967 -13.34899904 
      544   1   -14.86269893 -3.01521978 -11.90329914 
      545   2   -16.35559882 -1.56153989 -10.43989925 
      546   3   -14.91149892 -0.01511460 -8.94889935 
      547   2   -16.41859882  1.45761990 -7.43180946 
      548   3   -14.92649892  2.97687978 -5.96244957 