LAMMPS configuration data file

  1209 atoms

  4 atom types

  -35.126899  35.126899  xlo xhi
  -35.126899  35.126899  ylo yhi
  -35.126899  35.126899  zlo zhi

 Masses

  1   78.960
  2   112.411
  3   1.000
  4   1.000

 Atoms

        1   1   -15.12599891 -9.07612935 -0.00083524 
        2   1   -15.12649891 -6.05070957  3.02499978 
        3   1   -15.12649891 -3.02499978  6.05070957 
        4   1   -15.12599891  0.00083524  9.07612935 
        5   1   -12.10119912 -12.10119912 -0.00117872 
        6   2   -13.61269901 -10.58829923  1.51159989 
        7   1   -12.10109913 -9.07555934  3.02470978 
        8   2   -13.61309902 -7.56288945  4.53740967 
        9   1   -12.10099913 -6.05001957  6.05001957 
       10   2   -13.61309902 -4.53740967  7.56288945 
       11   1   -12.10109913 -3.02470978  9.07555934 
       12   2   -13.61269901 -1.51159989  10.58829923 
       13   1   -12.10119912  0.00117872  12.10119912 
       14   1   -9.07612935 -15.12599891 -0.00083524 
       15   2   -10.58829923 -13.61269901  1.51159989 
       16   1   -9.07555934 -12.10109913  3.02470978 
       17   2   -10.58769924 -10.58769924  4.53695967 
       18   1   -9.07533934 -9.07533934  6.04966956 
       19   2   -10.58729924 -7.56193945  7.56193945 
       20   1   -9.07533934 -6.04966956  9.07533934 
       21   2   -10.58769924 -4.53695967  10.58769924 
       22   1   -9.07555934 -3.02470978  12.10109913 
       23   2   -10.58829923 -1.51159989  13.61269901 
       24   1   -9.07612935  0.00083524  15.12599891 
       25   1   -6.05070957 -15.12649891  3.02499978 
       26   2   -7.56288945 -13.61309902  4.53740967 
       27   1   -6.05001957 -12.10099913  6.05001957 
       28   2   -7.56193945 -10.58729924  7.56193945 
       29   1   -6.04966956 -9.07533934  9.07533934 
       30   2   -7.56193945 -7.56193945  10.58729924 
       31   1   -6.05001957 -6.05001957  12.10099913 
       32   2   -7.56288945 -4.53740967  13.61309902 
       33   1   -6.05070957 -3.02499978  15.12649891 
       34   1   -3.02499978 -15.12649891  6.05070957 
       35   2   -4.53740967 -13.61309902  7.56288945 
       36   1   -3.02470978 -12.10109913  9.07555934 
       37   2   -4.53695967 -10.58769924  10.58769924 
       38   1   -3.02470978 -9.07555934  12.10109913 
       39   2   -4.53740967 -7.56288945  13.61309902 
       40   1   -3.02499978 -6.05070957  15.12649891 
       41   1    0.00083524 -15.12599891  9.07612935 
       42   2   -1.51159989 -13.61269901  10.58829923 
       43   1    0.00117872 -12.10119912  12.10119912 
       44   2   -1.51159989 -10.58829923  13.61269901 
       45   1    0.00083524 -9.07612935  15.12599891 
       46   1   -15.12619891 -6.05159956 -3.02651978 
       47   1   -15.12689891 -3.02562978 -0.00041697 
       48   1   -15.12689891  0.00041697  3.02562978 
       49   1   -15.12619891  3.02651978  6.05159956 
       50   1   -12.10119912 -12.10119912 -6.05138956 
       51   2   -13.61359902 -10.58909924 -4.53886967 
       52   1   -12.10149913 -9.07637935 -3.02639978 
       53   2   -13.61379902 -7.56396946 -1.51363989 
       54   1   -12.10189913 -6.05083956 -0.00088601 
       55   2   -13.61419902 -4.53839967  1.51216989 
       56   1   -12.10169913 -3.02501978  3.02501978 
       57   2   -13.61419902 -1.51216989  4.53839967 
       58   1   -12.10189913  0.00088601  6.05083956 
       59   2   -13.61379902  1.51363989  7.56396946 
       60   1   -12.10149913  3.02639978  9.07637935 
       61   2   -13.61359902  4.53886967  10.58909924 
       62   1   -12.10119912  6.05138956  12.10119912 
       63   2   -10.58909924 -13.61359902 -4.53886967 
       64   1   -9.07637935 -12.10149913 -3.02639978 
       65   2   -10.58879924 -10.58879924 -1.51408989 
       66   1   -9.07610934 -9.07610934 -0.00122790 
       67   2   -10.58869924 -7.56288945  1.51154989 
       68   1   -9.07649935 -6.05084956  3.02513978 
       69   2   -10.58849924 -4.53727967  4.53727967 
       70   1   -9.07649935 -3.02513978  6.05084956 
       71   2   -10.58869924 -1.51154989  7.56288945 
       72   1   -9.07610934  0.00122790  9.07610934 
       73   2   -10.58879924  1.51408989  10.58879924 
       74   1   -9.07637935  3.02639978  12.10149913 
       75   2   -10.58909924  4.53886967  13.61359902 
       76   1   -6.05159956 -15.12619891 -3.02651978 
       77   2   -7.56396946 -13.61379902 -1.51363989 
       78   1   -6.05083956 -12.10189913 -0.00088601 
       79   2   -7.56288945 -10.58869924  1.51154989 
       80   1   -6.05084956 -9.07649935  3.02513978 
       81   2   -7.56277945 -7.56277945  4.53721967 
       82   1   -6.05139956 -6.05139956  6.05139956 
       83   2   -7.56277945 -4.53721967  7.56277945 
       84   1   -6.05084956 -3.02513978  9.07649935 
       85   2   -7.56288945 -1.51154989  10.58869924 
       86   1   -6.05083956  0.00088601  12.10189913 
       87   2   -7.56396946  1.51363989  13.61379902 
       88   1   -6.05159956  3.02651978  15.12619891 
       89   1   -3.02562978 -15.12689891 -0.00041697 
       90   2   -4.53839967 -13.61419902  1.51216989 
       91   1   -3.02501978 -12.10169913  3.02501978 
       92   2   -4.53727967 -10.58849924  4.53727967 
       93   1   -3.02513978 -9.07649935  6.05084956 
       94   2   -4.53721967 -7.56277945  7.56277945 
       95   1   -3.02513978 -6.05084956  9.07649935 
       96   2   -4.53727967 -4.53727967  10.58849924 
       97   1   -3.02501978 -3.02501978  12.10169913 
       98   2   -4.53839967 -1.51216989  13.61419902 
       99   1   -3.02562978  0.00041697  15.12689891 
      100   1    0.00041697 -15.12689891  3.02562978 
      101   2   -1.51216989 -13.61419902  4.53839967 
      102   1    0.00088601 -12.10189913  6.05083956 
      103   2   -1.51154989 -10.58869924  7.56288945 
      104   1    0.00122790 -9.07610934  9.07610934 
      105   2   -1.51154989 -7.56288945  10.58869924 
      106   1    0.00088601 -6.05083956  12.10189913 
      107   2   -1.51216989 -4.53839967  13.61419902 
      108   1    0.00041697 -3.02562978  15.12689891 
      109   1    3.02651978 -15.12619891  6.05159956 
      110   2    1.51363989 -13.61379902  7.56396946 
      111   1    3.02639978 -12.10149913  9.07637935 
      112   2    1.51408989 -10.58879924  10.58879924 
      113   1    3.02639978 -9.07637935  12.10149913 
      114   2    1.51363989 -7.56396946  13.61379902 
      115   1    3.02651978 -6.05159956  15.12619891 
      116   2    4.53886967 -13.61359902  10.58909924 
      117   1    6.05138956 -12.10119912  12.10119912 
      118   2    4.53886967 -10.58909924  13.61359902 
      119   1   -15.12619891 -3.02651978 -6.05159956 
      120   1   -15.12689891 -0.00041697 -3.02562978 
      121   1   -15.12689891  3.02562978  0.00041697 
      122   1   -15.12619891  6.05159956  3.02651978 
      123   1   -12.10129913 -9.07637935 -9.07637935 
      124   2   -13.61359902 -7.56394945 -7.56394945 
      125   1   -12.10129913 -6.05132957 -6.05132957 
      126   2   -13.61399902 -4.53885967 -4.53885967 
      127   1   -12.10189913 -3.02598978 -3.02598978 
      128   2   -13.61429902 -1.51327989 -1.51327989 
      129   1   -12.10179913  0.00000000  0.00000000 
      130   2   -13.61429902  1.51327989  1.51327989 
      131   1   -12.10189913  3.02598978  3.02598978 
      132   2   -13.61399902  4.53885967  4.53885967 
      133   1   -12.10129913  6.05132957  6.05132957 
      134   2   -13.61359902  7.56394945  7.56394945 
      135   1   -12.10129913  9.07637935  9.07637935 
      136   1   -9.07637935 -12.10129913 -9.07637935 
      137   2   -10.58849924 -10.58849924 -7.56362945 
      138   1   -9.07560935 -9.07560935 -6.05108956 
      139   2   -10.58869924 -7.56359946 -4.53851967 
      140   1   -9.07660935 -6.05113956 -3.02630978 
      141   2   -10.58929924 -4.53851967 -1.51368989 
      142   1   -9.07824935 -3.02555978 -0.00035706 
      143   2   -10.58949924 -1.51237989  1.51237989 
      144   1   -9.07824935  0.00035706  3.02555978 
      145   2   -10.58929924  1.51368989  4.53851967 
      146   1   -9.07660935  3.02630978  6.05113956 
      147   2   -10.58869924  4.53851967  7.56359946 
      148   1   -9.07560935  6.05108956  9.07560935 
      149   2   -10.58849924  7.56362945  10.58849924 
      150   1   -9.07637935  9.07637935  12.10129913 
      151   2   -7.56394945 -13.61359902 -7.56394945 
      152   1   -6.05132957 -12.10129913 -6.05132957 
      153   2   -7.56359946 -10.58869924 -4.53851967 
      154   1   -6.05113956 -9.07660935 -3.02630978 
      155   2   -7.56404945 -7.56404945 -1.51464989 
      156   1   -6.05297956 -6.05297956 -0.00034801 
      157   2   -7.56542946 -4.53879967  1.51145989 
      158   1   -6.05417957 -3.02679978  3.02679978 
      159   2   -7.56542946 -1.51145989  4.53879967 
      160   1   -6.05297956  0.00034801  6.05297956 
      161   2   -7.56404945  1.51464989  7.56404945 
      162   1   -6.05113956  3.02630978  9.07660935 
      163   2   -7.56359946  4.53851967  10.58869924 
      164   1   -6.05132957  6.05132957  12.10129913 
      165   2   -7.56394945  7.56394945  13.61359902 
      166   1   -3.02651978 -15.12619891 -6.05159956 
      167   2   -4.53885967 -13.61399902 -4.53885967 
      168   1   -3.02598978 -12.10189913 -3.02598978 
      169   2   -4.53851967 -10.58929924 -1.51368989 
      170   1   -3.02555978 -9.07824935 -0.00035706 
      171   2   -4.53879967 -7.56542946  1.51145989 
      172   1   -3.02679978 -6.05417957  3.02679978 
      173   2   -4.53934967 -4.53934967  4.53934967 
      174   1   -3.02679978 -3.02679978  6.05417957 
      175   2   -4.53879967 -1.51145989  7.56542946 
      176   1   -3.02555978  0.00035706  9.07824935 
      177   2   -4.53851967  1.51368989  10.58929924 
      178   1   -3.02598978  3.02598978  12.10189913 
      179   2   -4.53885967  4.53885967  13.61399902 
      180   1   -3.02651978  6.05159956  15.12619891 
      181   1   -0.00041697 -15.12689891 -3.02562978 
      182   2   -1.51327989 -13.61429902 -1.51327989 
      183   1    0.00000000 -12.10179913  0.00000000 
      184   2   -1.51237989 -10.58949924  1.51237989 
      185   1    0.00035706 -9.07824935  3.02555978 
      186   2   -1.51145989 -7.56542946  4.53879967 
      187   1    0.00034801 -6.05297956  6.05297956 
      188   2   -1.51145989 -4.53879967  7.56542946 
      189   1    0.00035706 -3.02555978  9.07824935 
      190   2   -1.51237989 -1.51237989  10.58949924 
      191   1   -0.00000000 -0.00000000  12.10179913 
      192   2   -1.51327989  1.51327989  13.61429902 
      193   1   -0.00041697  3.02562978  15.12689891 
      194   1    3.02562978 -15.12689891  0.00041697 
      195   2    1.51327989 -13.61429902  1.51327989 
      196   1    3.02598978 -12.10189913  3.02598978 
      197   2    1.51368989 -10.58929924  4.53851967 
      198   1    3.02630978 -9.07660935  6.05113956 
      199   2    1.51464989 -7.56404945  7.56404945 
      200   1    3.02630978 -6.05113956  9.07660935 
      201   2    1.51368989 -4.53851967  10.58929924 
      202   1    3.02598978 -3.02598978  12.10189913 
      203   2    1.51327989 -1.51327989  13.61429902 
      204   1    3.02562978 -0.00041697  15.12689891 
      205   1    6.05159956 -15.12619891  3.02651978 
      206   2    4.53885967 -13.61399902  4.53885967 
      207   1    6.05132957 -12.10129913  6.05132957 
      208   2    4.53851967 -10.58869924  7.56359946 
      209   1    6.05108956 -9.07560935  9.07560935 
      210   2    4.53851967 -7.56359946  10.58869924 
      211   1    6.05132957 -6.05132957  12.10129913 
      212   2    4.53885967 -4.53885967  13.61399902 
      213   1    6.05159956 -3.02651978  15.12619891 
      214   2    7.56394945 -13.61359902  7.56394945 
      215   1    9.07637935 -12.10129913  9.07637935 
      216   2    7.56362945 -10.58849924  10.58849924 
      217   1    9.07637935 -9.07637935  12.10129913 
      218   2    7.56394945 -7.56394945  13.61359902 
      219   1   -15.12599891 -0.00083524 -9.07612935 
      220   1   -15.12649891  3.02499978 -6.05070957 
      221   1   -15.12649891  6.05070957 -3.02499978 
      222   1   -15.12599891  9.07612935  0.00083524 
      223   1   -12.10119912 -6.05138956 -12.10119912 
      224   2   -13.61359902 -4.53886967 -10.58909924 
      225   1   -12.10149913 -3.02639978 -9.07637935 
      226   2   -13.61379902 -1.51363989 -7.56396946 
      227   1   -12.10189913 -0.00088601 -6.05083956 
      228   2   -13.61419902  1.51216989 -4.53839967 
      229   1   -12.10169913  3.02501978 -3.02501978 
      230   2   -13.61419902  4.53839967 -1.51216989 
      231   1   -12.10189913  6.05083956  0.00088601 
      232   2   -13.61379902  7.56396946  1.51363989 
      233   1   -12.10149913  9.07637935  3.02639978 
      234   2   -13.61359902  10.58909924  4.53886967 
      235   1   -12.10119912  12.10119912  6.05138956 
      236   1   -9.07637935 -9.07637935 -12.10129913 
      237   2   -10.58849924 -7.56362945 -10.58849924 
      238   1   -9.07560935 -6.05108956 -9.07560935 
      239   2   -10.58869924 -4.53851967 -7.56359946 
      240   1   -9.07660935 -3.02630978 -6.05113956 
      241   2   -10.58929924 -1.51368989 -4.53851967 
      242   1   -9.07824935 -0.00035706 -3.02555978 
      243   2   -10.58949924  1.51237989 -1.51237989 
      244   1   -9.07824935  3.02555978  0.00035706 
      245   2   -10.58929924  4.53851967  1.51368989 
      246   1   -9.07660935  6.05113956  3.02630978 
      247   2   -10.58869924  7.56359946  4.53851967 
      248   1   -9.07560935  9.07560935  6.05108956 
      249   2   -10.58849924  10.58849924  7.56362945 
      250   1   -9.07637935  12.10129913  9.07637935 
      251   1   -6.05138956 -12.10119912 -12.10119912 
      252   2   -7.56362945 -10.58849924 -10.58849924 
      253   1   -6.05108956 -9.07560935 -9.07560935 
      254   2   -7.56326946 -7.56326946 -7.56326946 
      255   1   -6.05162956 -6.05162956 -6.05162956 
      256   2   -7.56467945 -4.53974967 -4.53974967 
      257   1   -6.05478956 -3.02696978 -3.02696978 
      258   2   -7.56650945 -1.51392989 -1.51392989 
      259   1   -6.05623956 -0.00000000 -0.00000000 
      260   2   -7.56650945  1.51392989  1.51392989 
      261   1   -6.05478956  3.02696978  3.02696978 
      262   2   -7.56467945  4.53974967  4.53974967 
      263   1   -6.05162956  6.05162956  6.05162956 
      264   2   -7.56326946  7.56326946  7.56326946 
      265   1   -6.05108956  9.07560935  9.07560935 
      266   2   -7.56362945  10.58849924  10.58849924 
      267   1   -6.05138956  12.10119912  12.10119912 
      268   2   -4.53886967 -13.61359902 -10.58909924 
      269   1   -3.02639978 -12.10149913 -9.07637935 
      270   2   -4.53851967 -10.58869924 -7.56359946 
      271   1   -3.02630978 -9.07660935 -6.05113956 
      272   2   -4.53974967 -7.56467945 -4.53974967 
      273   1   -3.02696978 -6.05478956 -3.02696978 
      274   2   -4.54117967 -4.54117967 -1.51524989 
      275   1   -3.02864978 -3.02864978  0.00023789 
      276   2   -4.54170967 -1.51315989  1.51315989 
      277   1   -3.02864978 -0.00023789  3.02864978 
      278   2   -4.54117967  1.51524989  4.54117967 
      279   1   -3.02696978  3.02696978  6.05478956 
      280   2   -4.53974967  4.53974967  7.56467945 
      281   1   -3.02630978  6.05113956  9.07660935 
      282   2   -4.53851967  7.56359946  10.58869924 
      283   1   -3.02639978  9.07637935  12.10149913 
      284   2   -4.53886967  10.58909924  13.61359902 
      285   1   -0.00083524 -15.12599891 -9.07612935 
      286   2   -1.51363989 -13.61379902 -7.56396946 
      287   1   -0.00088601 -12.10189913 -6.05083956 
      288   2   -1.51368989 -10.58929924 -4.53851967 
      289   1   -0.00035706 -9.07824935 -3.02555978 
      290   2   -1.51392989 -7.56650945 -1.51392989 
      291   1    0.00000000 -6.05623956 -0.00000000 
      292   2   -1.51315989 -4.54170967  1.51315989 
      293   1   -0.00023789 -3.02864978  3.02864978 
      294   2   -1.51315989 -1.51315989  4.54170967 
      295   1    0.00000000 -0.00000000  6.05623956 
      296   2   -1.51392989  1.51392989  7.56650945 
      297   1   -0.00035706  3.02555978  9.07824935 
      298   2   -1.51368989  4.53851967  10.58929924 
      299   1   -0.00088601  6.05083956  12.10189913 
      300   2   -1.51363989  7.56396946  13.61379902 
      301   1   -0.00083524  9.07612935  15.12599891 
      302   1    3.02499978 -15.12649891 -6.05070957 
      303   2    1.51216989 -13.61419902 -4.53839967 
      304   1    3.02501978 -12.10169913 -3.02501978 
      305   2    1.51237989 -10.58949924 -1.51237989 
      306   1    3.02555978 -9.07824935  0.00035706 
      307   2    1.51392989 -7.56650945  1.51392989 
      308   1    3.02696978 -6.05478956  3.02696978 
      309   2    1.51524989 -4.54117967  4.54117967 
      310   1    3.02696978 -3.02696978  6.05478956 
      311   2    1.51392989 -1.51392989  7.56650945 
      312   1    3.02555978 -0.00035706  9.07824935 
      313   2    1.51237989  1.51237989  10.58949924 
      314   1    3.02501978  3.02501978  12.10169913 
      315   2    1.51216989  4.53839967  13.61419902 
      316   1    3.02499978  6.05070957  15.12649891 
      317   1    6.05070957 -15.12649891 -3.02499978 
      318   2    4.53839967 -13.61419902 -1.51216989 
      319   1    6.05083956 -12.10189913  0.00088601 
      320   2    4.53851967 -10.58929924  1.51368989 
      321   1    6.05113956 -9.07660935  3.02630978 
      322   2    4.53974967 -7.56467945  4.53974967 
      323   1    6.05162956 -6.05162956  6.05162956 
      324   2    4.53974967 -4.53974967  7.56467945 
      325   1    6.05113956 -3.02630978  9.07660935 
      326   2    4.53851967 -1.51368989  10.58929924 
      327   1    6.05083956 -0.00088601  12.10189913 
      328   2    4.53839967  1.51216989  13.61419902 
      329   1    6.05070957  3.02499978  15.12649891 
      330   1    9.07612935 -15.12599891  0.00083524 
      331   2    7.56396946 -13.61379902  1.51363989 
      332   1    9.07637935 -12.10149913  3.02639978 
      333   2    7.56359946 -10.58869924  4.53851967 
      334   1    9.07560935 -9.07560935  6.05108956 
      335   2    7.56326946 -7.56326946  7.56326946 
      336   1    9.07560935 -6.05108956  9.07560935 
      337   2    7.56359946 -4.53851967  10.58869924 
      338   1    9.07637935 -3.02639978  12.10149913 
      339   2    7.56396946 -1.51363989  13.61379902 
      340   1    9.07612935 -0.00083524  15.12599891 
      341   2    10.58909924 -13.61359902  4.53886967 
      342   1    12.10119912 -12.10119912  6.05138956 
      343   2    10.58849924 -10.58849924  7.56362945 
      344   1    12.10129913 -9.07637935  9.07637935 
      345   2    10.58849924 -7.56362945  10.58849924 
      346   1    12.10119912 -6.05138956  12.10119912 
      347   2    10.58909924 -4.53886967  13.61359902 
      348   1   -12.10119912 -0.00117872 -12.10119912 
      349   2   -13.61269901  1.51159989 -10.58829923 
      350   1   -12.10109913  3.02470978 -9.07555934 
      351   2   -13.61309902  4.53740967 -7.56288945 
      352   1   -12.10099913  6.05001957 -6.05001957 
      353   2   -13.61309902  7.56288945 -4.53740967 
      354   1   -12.10109913  9.07555934 -3.02470978 
      355   2   -13.61269901  10.58829923 -1.51159989 
      356   1   -12.10119912  12.10119912  0.00117872 
      357   2   -10.58909924 -4.53886967 -13.61359902 
      358   1   -9.07637935 -3.02639978 -12.10149913 
      359   2   -10.58879924 -1.51408989 -10.58879924 
      360   1   -9.07610934 -0.00122790 -9.07610934 
      361   2   -10.58869924  1.51154989 -7.56288945 
      362   1   -9.07649935  3.02513978 -6.05084956 
      363   2   -10.58849924  4.53727967 -4.53727967 
      364   1   -9.07649935  6.05084956 -3.02513978 
      365   2   -10.58869924  7.56288945 -1.51154989 
      366   1   -9.07610934  9.07610934  0.00122790 
      367   2   -10.58879924  10.58879924  1.51408989 
      368   1   -9.07637935  12.10149913  3.02639978 
      369   2   -10.58909924  13.61359902  4.53886967 
      370   2   -7.56394945 -7.56394945 -13.61359902 
      371   1   -6.05132957 -6.05132957 -12.10129913 
      372   2   -7.56359946 -4.53851967 -10.58869924 
      373   1   -6.05113956 -3.02630978 -9.07660935 
      374   2   -7.56404945 -1.51464989 -7.56404945 
      375   1   -6.05297956 -0.00034801 -6.05297956 
      376   2   -7.56542946  1.51145989 -4.53879967 
      377   1   -6.05417957  3.02679978 -3.02679978 
      378   2   -7.56542946  4.53879967 -1.51145989 
      379   1   -6.05297956  6.05297956  0.00034801 
      380   2   -7.56404945  7.56404945  1.51464989 
      381   1   -6.05113956  9.07660935  3.02630978 
      382   2   -7.56359946  10.58869924  4.53851967 
      383   1   -6.05132957  12.10129913  6.05132957 
      384   2   -7.56394945  13.61359902  7.56394945 
      385   2   -4.53886967 -10.58909924 -13.61359902 
      386   1   -3.02639978 -9.07637935 -12.10149913 
      387   2   -4.53851967 -7.56359946 -10.58869924 
      388   1   -3.02630978 -6.05113956 -9.07660935 
      389   2   -4.53974967 -4.53974967 -7.56467945 
      390   1   -3.02696978 -3.02696978 -6.05478956 
      391   2   -4.54117967 -1.51524989 -4.54117967 
      392   1   -3.02864978  0.00023789 -3.02864978 
      393   2   -4.54170967  1.51315989 -1.51315989 
      394   1   -3.02864978  3.02864978 -0.00023789 
      395   2   -4.54117967  4.54117967  1.51524989 
      396   1   -3.02696978  6.05478956  3.02696978 
      397   2   -4.53974967  7.56467945  4.53974967 
      398   1   -3.02630978  9.07660935  6.05113956 
      399   2   -4.53851967  10.58869924  7.56359946 
      400   1   -3.02639978  12.10149913  9.07637935 
      401   2   -4.53886967  13.61359902  10.58909924 
      402   1   -0.00117872 -12.10119912 -12.10119912 
      403   2   -1.51408989 -10.58879924 -10.58879924 
      404   1   -0.00122790 -9.07610934 -9.07610934 
      405   2   -1.51464989 -7.56404945 -7.56404945 
      406   1   -0.00034801 -6.05297956 -6.05297956 
      407   2   -1.51524989 -4.54117967 -4.54117967 
      408   1    0.00023789 -3.02864978 -3.02864978 
      409   2   -1.51440989 -1.51440989 -1.51440989 
      410   1   -0.00000000  0.00000000  0.00000000 
      411   2   -1.51440989  1.51440989  1.51440989 
      412   1    0.00023789  3.02864978  3.02864978 
      413   2   -1.51524989  4.54117967  4.54117967 
      414   1   -0.00034801  6.05297956  6.05297956 
      415   2   -1.51464989  7.56404945  7.56404945 
      416   1   -0.00122790  9.07610934  9.07610934 
      417   2   -1.51408989  10.58879924  10.58879924 
      418   1   -0.00117872  12.10119912  12.10119912 
      419   2    1.51159989 -13.61269901 -10.58829923 
      420   1    3.02470978 -12.10109913 -9.07555934 
      421   2    1.51154989 -10.58869924 -7.56288945 
      422   1    3.02513978 -9.07649935 -6.05084956 
      423   2    1.51145989 -7.56542946 -4.53879967 
      424   1    3.02679978 -6.05417957 -3.02679978 
      425   2    1.51315989 -4.54170967 -1.51315989 
      426   1    3.02864978 -3.02864978 -0.00023789 
      427   2    1.51440989 -1.51440989  1.51440989 
      428   1    3.02864978  0.00023789  3.02864978 
      429   2    1.51315989  1.51315989  4.54170967 
      430   1    3.02679978  3.02679978  6.05417957 
      431   2    1.51145989  4.53879967  7.56542946 
      432   1    3.02513978  6.05084956  9.07649935 
      433   2    1.51154989  7.56288945  10.58869924 
      434   1    3.02470978  9.07555934  12.10109913 
      435   2    1.51159989  10.58829923  13.61269901 
      436   2    4.53740967 -13.61309902 -7.56288945 
      437   1    6.05001957 -12.10099913 -6.05001957 
      438   2    4.53727967 -10.58849924 -4.53727967 
      439   1    6.05084956 -9.07649935 -3.02513978 
      440   2    4.53879967 -7.56542946 -1.51145989 
      441   1    6.05297956 -6.05297956  0.00034801 
      442   2    4.54117967 -4.54117967  1.51524989 
      443   1    6.05478956 -3.02696978  3.02696978 
      444   2    4.54117967 -1.51524989  4.54117967 
      445   1    6.05297956 -0.00034801  6.05297956 
      446   2    4.53879967  1.51145989  7.56542946 
      447   1    6.05084956  3.02513978  9.07649935 
      448   2    4.53727967  4.53727967  10.58849924 
      449   1    6.05001957  6.05001957  12.10099913 
      450   2    4.53740967  7.56288945  13.61309902 
      451   2    7.56288945 -13.61309902 -4.53740967 
      452   1    9.07555934 -12.10109913 -3.02470978 
      453   2    7.56288945 -10.58869924 -1.51154989 
      454   1    9.07610934 -9.07610934  0.00122790 
      455   2    7.56404945 -7.56404945  1.51464989 
      456   1    9.07660935 -6.05113956  3.02630978 
      457   2    7.56467945 -4.53974967  4.53974967 
      458   1    9.07660935 -3.02630978  6.05113956 
      459   2    7.56404945 -1.51464989  7.56404945 
      460   1    9.07610934 -0.00122790  9.07610934 
      461   2    7.56288945  1.51154989  10.58869924 
      462   1    9.07555934  3.02470978  12.10109913 
      463   2    7.56288945  4.53740967  13.61309902 
      464   2    10.58829923 -13.61269901 -1.51159989 
      465   1    12.10119912 -12.10119912  0.00117872 
      466   2    10.58879924 -10.58879924  1.51408989 
      467   1    12.10149913 -9.07637935  3.02639978 
      468   2    10.58869924 -7.56359946  4.53851967 
      469   1    12.10129913 -6.05132957  6.05132957 
      470   2    10.58869924 -4.53851967  7.56359946 
      471   1    12.10149913 -3.02639978  9.07637935 
      472   2    10.58879924 -1.51408989  10.58879924 
      473   1    12.10119912 -0.00117872  12.10119912 
      474   2    10.58829923  1.51159989  13.61269901 
      475   2    13.61359902 -10.58909924  4.53886967 
      476   2    13.61359902 -7.56394945  7.56394945 
      477   2    13.61359902 -4.53886967  10.58909924 
      478   1   -9.07612935 -0.00083524 -15.12599891 
      479   2   -10.58829923  1.51159989 -13.61269901 
      480   1   -9.07555934  3.02470978 -12.10109913 
      481   2   -10.58769924  4.53695967 -10.58769924 
      482   1   -9.07533934  6.04966956 -9.07533934 
      483   2   -10.58729924  7.56193945 -7.56193945 
      484   1   -9.07533934  9.07533934 -6.04966956 
      485   2   -10.58769924  10.58769924 -4.53695967 
      486   1   -9.07555934  12.10109913 -3.02470978 
      487   2   -10.58829923  13.61269901 -1.51159989 
      488   1   -9.07612935  15.12599891  0.00083524 
      489   1   -6.05159956 -3.02651978 -15.12619891 
      490   2   -7.56396946 -1.51363989 -13.61379902 
      491   1   -6.05083956 -0.00088601 -12.10189913 
      492   2   -7.56288945  1.51154989 -10.58869924 
      493   1   -6.05084956  3.02513978 -9.07649935 
      494   2   -7.56277945  4.53721967 -7.56277945 
      495   1   -6.05139956  6.05139956 -6.05139956 
      496   2   -7.56277945  7.56277945 -4.53721967 
      497   1   -6.05084956  9.07649935 -3.02513978 
      498   2   -7.56288945  10.58869924 -1.51154989 
      499   1   -6.05083956  12.10189913  0.00088601 
      500   2   -7.56396946  13.61379902  1.51363989 
      501   1   -6.05159956  15.12619891  3.02651978 
      502   1   -3.02651978 -6.05159956 -15.12619891 
      503   2   -4.53885967 -4.53885967 -13.61399902 
      504   1   -3.02598978 -3.02598978 -12.10189913 
      505   2   -4.53851967 -1.51368989 -10.58929924 
      506   1   -3.02555978 -0.00035706 -9.07824935 
      507   2   -4.53879967  1.51145989 -7.56542946 
      508   1   -3.02679978  3.02679978 -6.05417957 
      509   2   -4.53934967  4.53934967 -4.53934967 
      510   1   -3.02679978  6.05417957 -3.02679978 
      511   2   -4.53879967  7.56542946 -1.51145989 
      512   1   -3.02555978  9.07824935  0.00035706 
      513   2   -4.53851967  10.58929924  1.51368989 
      514   1   -3.02598978  12.10189913  3.02598978 
      515   2   -4.53885967  13.61399902  4.53885967 
      516   1   -3.02651978  15.12619891  6.05159956 
      517   1   -0.00083524 -9.07612935 -15.12599891 
      518   2   -1.51363989 -7.56396946 -13.61379902 
      519   1   -0.00088601 -6.05083956 -12.10189913 
      520   2   -1.51368989 -4.53851967 -10.58929924 
      521   1   -0.00035706 -3.02555978 -9.07824935 
      522   2   -1.51392989 -1.51392989 -7.56650945 
      523   1    0.00000000  0.00000000 -6.05623956 
      524   2   -1.51315989  1.51315989 -4.54170967 
      525   1   -0.00023789  3.02864978 -3.02864978 
      526   2   -1.51315989  4.54170967 -1.51315989 
      527   1   -0.00000000  6.05623956  0.00000000 
      528   2   -1.51392989  7.56650945  1.51392989 
      529   1   -0.00035706  9.07824935  3.02555978 
      530   2   -1.51368989  10.58929924  4.53851967 
      531   1   -0.00088601  12.10189913  6.05083956 
      532   2   -1.51363989  13.61379902  7.56396946 
      533   1   -0.00083524  15.12599891  9.07612935 
      534   2    1.51159989 -10.58829923 -13.61269901 
      535   1    3.02470978 -9.07555934 -12.10109913 
      536   2    1.51154989 -7.56288945 -10.58869924 
      537   1    3.02513978 -6.05084956 -9.07649935 
      538   2    1.51145989 -4.53879967 -7.56542946 
      539   1    3.02679978 -3.02679978 -6.05417957 
      540   2    1.51315989 -1.51315989 -4.54170967 
      541   1    3.02864978 -0.00023789 -3.02864978 
      542   2    1.51440989  1.51440989 -1.51440989 
      543   1    3.02864978  3.02864978  0.00023789 
      544   2    1.51315989  4.54170967  1.51315989 
      545   1    3.02679978  6.05417957  3.02679978 
      546   2    1.51145989  7.56542946  4.53879967 
      547   1    3.02513978  9.07649935  6.05084956 
      548   2    1.51154989  10.58869924  7.56288945 
      549   1    3.02470978  12.10109913  9.07555934 
      550   2    1.51159989  13.61269901  10.58829923 
      551   2    4.53695967 -10.58769924 -10.58769924 
      552   1    6.04966956 -9.07533934 -9.07533934 
      553   2    4.53721967 -7.56277945 -7.56277945 