LAMMPS configuration data file

  10063 atoms

  3 atom types

  -57.816802  57.816802  xlo xhi
  -57.816802  57.816802  ylo yhi
  -40.362893  40.362893  zlo zhi

 Masses

  1   32.065
  2   112.411
  3   78.960

 Atoms

        1   1   -36.36230938 -36.36230938  13.09043137 
        2   2   -37.81680175 -34.90781700  14.54492375 
        3   1   -36.36230938 -33.45332463  15.99941612 
        4   2   -37.81680175 -31.99883225  17.45390850 
        5   1   -36.36230938 -30.54433988  18.90840087 
        6   2   -34.90781700 -37.81680175  14.54492375 
        7   1   -33.45332463 -36.36230938  15.99941612 
        8   2   -34.90781700 -34.90781700  17.45390850 
        9   1   -33.45332463 -33.45332463  18.90840087 
       10   2   -34.90781700 -31.99883225  20.36289325 
       11   2   -31.99883225 -37.81680175  17.45390850 
       12   1   -30.54433988 -36.36230938  18.90840087 
       13   2   -31.99883225 -34.90781700  20.36289325 
       14   1   -36.36230938 -36.36230938  7.27246187 
       15   2   -37.81680175 -34.90781700  8.72695425 
       16   1   -36.36230938 -33.45332463  10.18144662 
       17   2   -37.81680175 -31.99883225  11.63593900 
       18   1   -36.36230938 -30.54433988  13.09043137 
       19   2   -37.81680175 -29.08984750  14.54492375 
       20   1   -36.36230938 -27.63535513  15.99941612 
       21   2   -37.81680175 -26.18086275  17.45390850 
       22   1   -36.36230938 -24.72637038  18.90840087 
       23   2   -34.90781700 -37.81680175  8.72695425 
       24   1   -33.45332463 -36.36230938  10.18144662 
       25   2   -34.90781700 -34.90781700  11.63593900 
       26   1   -33.45332463 -33.45332463  13.09043137 
       27   2   -34.90781700 -31.99883225  14.54492375 
       28   1   -33.45332463 -30.54433988  15.99941612 
       29   2   -34.90781700 -29.08984750  17.45390850 
       30   1   -33.45332463 -27.63535513  18.90840087 
       31   2   -34.90781700 -26.18086275  20.36289325 
       32   2   -31.99883225 -37.81680175  11.63593900 
       33   1   -30.54433988 -36.36230938  13.09043137 
       34   2   -31.99883225 -34.90781700  14.54492375 
       35   1   -30.54433988 -33.45332463  15.99941612 
       36   2   -31.99883225 -31.99883225  17.45390850 
       37   1   -30.54433988 -30.54433988  18.90840087 
       38   2   -31.99883225 -29.08984750  20.36289325 
       39   2   -29.08984750 -37.81680175  14.54492375 
       40   1   -27.63535513 -36.36230938  15.99941612 
       41   2   -29.08984750 -34.90781700  17.45390850 
       42   1   -27.63535513 -33.45332463  18.90840087 
       43   2   -29.08984750 -31.99883225  20.36289325 
       44   2   -26.18086275 -37.81680175  17.45390850 
       45   1   -24.72637038 -36.36230938  18.90840087 
       46   2   -26.18086275 -34.90781700  20.36289325 
       47   3   -36.36230938 -36.36230938  1.45449237 
       48   2   -37.81680175 -34.90781700  2.90898475 
       49   3   -36.36230938 -33.45332463  4.36347712 
       50   2   -37.81680175 -31.99883225  5.81796950 
       51   1   -36.36230938 -30.54433988  7.27246187 
       52   2   -37.81680175 -29.08984750  8.72695425 
       53   1   -36.36230938 -27.63535513  10.18144662 
       54   2   -37.81680175 -26.18086275  11.63593900 
       55   1   -36.36230938 -24.72637038  13.09043137 
       56   2   -37.81680175 -23.27187800  14.54492375 
       57   1   -36.36230938 -21.81738563  15.99941612 
       58   2   -37.81680175 -20.36289325  17.45390850 
       59   1   -36.36230938 -18.90840088  18.90840087 
       60   2   -34.90781700 -37.81680175  2.90898475 
       61   3   -33.45332463 -36.36230938  4.36347712 
       62   2   -34.90781700 -34.90781700  5.81796950 
       63   1   -33.45332463 -33.45332463  7.27246187 
       64   2   -34.90781700 -31.99883225  8.72695425 
       65   1   -33.45332463 -30.54433988  10.18144662 
       66   2   -34.90781700 -29.08984750  11.63593900 
       67   1   -33.45332463 -27.63535513  13.09043137 
       68   2   -34.90781700 -26.18086275  14.54492375 
       69   1   -33.45332463 -24.72637038  15.99941612 
       70   2   -34.90781700 -23.27187800  17.45390850 
       71   1   -33.45332463 -21.81738563  18.90840087 
       72   2   -34.90781700 -20.36289325  20.36289325 
       73   2   -31.99883225 -37.81680175  5.81796950 
       74   1   -30.54433988 -36.36230938  7.27246187 
       75   2   -31.99883225 -34.90781700  8.72695425 
       76   1   -30.54433988 -33.45332463  10.18144662 
       77   2   -31.99883225 -31.99883225  11.63593900 
       78   1   -30.54433988 -30.54433988  13.09043137 
       79   2   -31.99883225 -29.08984750  14.54492375 
       80   1   -30.54433988 -27.63535513  15.99941612 
       81   2   -31.99883225 -26.18086275  17.45390850 
       82   1   -30.54433988 -24.72637038  18.90840087 
       83   2   -31.99883225 -23.27187800  20.36289325 
       84   2   -29.08984750 -37.81680175  8.72695425 
       85   1   -27.63535513 -36.36230938  10.18144662 
       86   2   -29.08984750 -34.90781700  11.63593900 
       87   1   -27.63535513 -33.45332463  13.09043137 
       88   2   -29.08984750 -31.99883225  14.54492375 
       89   1   -27.63535513 -30.54433988  15.99941612 
       90   2   -29.08984750 -29.08984750  17.45390850 
       91   1   -27.63535513 -27.63535513  18.90840087 
       92   2   -29.08984750 -26.18086275  20.36289325 
       93   2   -26.18086275 -37.81680175  11.63593900 
       94   1   -24.72637038 -36.36230938  13.09043137 
       95   2   -26.18086275 -34.90781700  14.54492375 
       96   1   -24.72637038 -33.45332463  15.99941612 
       97   2   -26.18086275 -31.99883225  17.45390850 
       98   1   -24.72637038 -30.54433988  18.90840087 
       99   2   -26.18086275 -29.08984750  20.36289325 
      100   2   -23.27187800 -37.81680175  14.54492375 
      101   1   -21.81738563 -36.36230938  15.99941612 
      102   2   -23.27187800 -34.90781700  17.45390850 
      103   1   -21.81738563 -33.45332463  18.90840087 
      104   2   -23.27187800 -31.99883225  20.36289325 
      105   2   -20.36289325 -37.81680175  17.45390850 
      106   1   -18.90840088 -36.36230938  18.90840087 
      107   2   -20.36289325 -34.90781700  20.36289325 
      108   3   -36.36230938 -36.36230938 -4.36347713 
      109   2   -37.81680175 -34.90781700 -2.90898475 
      110   3   -36.36230938 -33.45332463 -1.45449238 
      111   2   -37.81680175 -31.99883225 -0.00000000 
      112   3   -36.36230938 -30.54433988  1.45449237 
      113   2   -37.81680175 -29.08984750  2.90898475 
      114   3   -36.36230938 -27.63535513  4.36347712 
      115   2   -37.81680175 -26.18086275  5.81796950 
      116   1   -36.36230938 -24.72637038  7.27246187 
      117   2   -37.81680175 -23.27187800  8.72695425 
      118   1   -36.36230938 -21.81738563  10.18144662 
      119   2   -37.81680175 -20.36289325  11.63593900 
      120   1   -36.36230938 -18.90840088  13.09043137 
      121   2   -37.81680175 -17.45390850  14.54492375 
      122   1   -36.36230938 -15.99941613  15.99941612 
      123   2   -37.81680175 -14.54492375  17.45390850 
      124   1   -36.36230938 -13.09043138  18.90840087 
      125   2   -34.90781700 -37.81680175 -2.90898475 
      126   3   -33.45332463 -36.36230938 -1.45449238 
      127   2   -34.90781700 -34.90781700 -0.00000000 
      128   3   -33.45332463 -33.45332463  1.45449237 
      129   2   -34.90781700 -31.99883225  2.90898475 
      130   3   -33.45332463 -30.54433988  4.36347712 
      131   2   -34.90781700 -29.08984750  5.81796950 
      132   1   -33.45332463 -27.63535513  7.27246187 
      133   2   -34.90781700 -26.18086275  8.72695425 
      134   1   -33.45332463 -24.72637038  10.18144662 
      135   2   -34.90781700 -23.27187800  11.63593900 
      136   1   -33.45332463 -21.81738563  13.09043137 
      137   2   -34.90781700 -20.36289325  14.54492375 
      138   1   -33.45332463 -18.90840088  15.99941612 
      139   2   -34.90781700 -17.45390850  17.45390850 
      140   1   -33.45332463 -15.99941613  18.90840087 
      141   2   -34.90781700 -14.54492375  20.36289325 
      142   2   -31.99883225 -37.81680175 -0.00000000 
      143   3   -30.54433988 -36.36230938  1.45449237 
      144   2   -31.99883225 -34.90781700  2.90898475 
      145   3   -30.54433988 -33.45332463  4.36347712 
      146   2   -31.99883225 -31.99883225  5.81796950 
      147   1   -30.54433988 -30.54433988  7.27246187 
      148   2   -31.99883225 -29.08984750  8.72695425 
      149   1   -30.54433988 -27.63535513  10.18144662 
      150   2   -31.99883225 -26.18086275  11.63593900 
      151   1   -30.54433988 -24.72637038  13.09043137 
      152   2   -31.99883225 -23.27187800  14.54492375 
      153   1   -30.54433988 -21.81738563  15.99941612 
      154   2   -31.99883225 -20.36289325  17.45390850 
      155   1   -30.54433988 -18.90840088  18.90840087 
      156   2   -31.99883225 -17.45390850  20.36289325 
      157   2   -29.08984750 -37.81680175  2.90898475 
      158   3   -27.63535513 -36.36230938  4.36347712 
      159   2   -29.08984750 -34.90781700  5.81796950 
      160   1   -27.63535513 -33.45332463  7.27246187 
      161   2   -29.08984750 -31.99883225  8.72695425 
      162   1   -27.63535513 -30.54433988  10.18144662 
      163   2   -29.08984750 -29.08984750  11.63593900 
      164   1   -27.63535513 -27.63535513  13.09043137 
      165   2   -29.08984750 -26.18086275  14.54492375 
      166   1   -27.63535513 -24.72637038  15.99941612 
      167   2   -29.08984750 -23.27187800  17.45390850 
      168   1   -27.63535513 -21.81738563  18.90840087 
      169   2   -29.08984750 -20.36289325  20.36289325 
      170   2   -26.18086275 -37.81680175  5.81796950 
      171   1   -24.72637038 -36.36230938  7.27246187 
      172   2   -26.18086275 -34.90781700  8.72695425 
      173   1   -24.72637038 -33.45332463  10.18144662 
      174   2   -26.18086275 -31.99883225  11.63593900 
      175   1   -24.72637038 -30.54433988  13.09043137 
      176   2   -26.18086275 -29.08984750  14.54492375 
      177   1   -24.72637038 -27.63535513  15.99941612 
      178   2   -26.18086275 -26.18086275  17.45390850 
      179   1   -24.72637038 -24.72637038  18.90840087 
      180   2   -26.18086275 -23.27187800  20.36289325 
      181   2   -23.27187800 -37.81680175  8.72695425 
      182   1   -21.81738563 -36.36230938  10.18144662 
      183   2   -23.27187800 -34.90781700  11.63593900 
      184   1   -21.81738563 -33.45332463  13.09043137 
      185   2   -23.27187800 -31.99883225  14.54492375 
      186   1   -21.81738563 -30.54433988  15.99941612 
      187   2   -23.27187800 -29.08984750  17.45390850 
      188   1   -21.81738563 -27.63535513  18.90840087 
      189   2   -23.27187800 -26.18086275  20.36289325 
      190   2   -20.36289325 -37.81680175  11.63593900 
      191   1   -18.90840088 -36.36230938  13.09043137 
      192   2   -20.36289325 -34.90781700  14.54492375 
      193   1   -18.90840088 -33.45332463  15.99941612 
      194   2   -20.36289325 -31.99883225  17.45390850 
      195   1   -18.90840088 -30.54433988  18.90840087 
      196   2   -20.36289325 -29.08984750  20.36289325 
      197   2   -17.45390850 -37.81680175  14.54492375 
      198   1   -15.99941613 -36.36230938  15.99941612 
      199   2   -17.45390850 -34.90781700  17.45390850 
      200   1   -15.99941613 -33.45332463  18.90840087 
      201   2   -17.45390850 -31.99883225  20.36289325 
      202   2   -14.54492375 -37.81680175  17.45390850 
      203   1   -13.09043138 -36.36230938  18.90840087 
      204   2   -14.54492375 -34.90781700  20.36289325 
      205   1   -36.36230938 -36.36230938 -10.18144663 
      206   2   -37.81680175 -34.90781700 -8.72695425 
      207   1   -36.36230938 -33.45332463 -7.27246188 
      208   2   -37.81680175 -31.99883225 -5.81796950 
      209   3   -36.36230938 -30.54433988 -4.36347713 
      210   2   -37.81680175 -29.08984750 -2.90898475 
      211   3   -36.36230938 -27.63535513 -1.45449238 
      212   2   -37.81680175 -26.18086275 -0.00000000 
      213   3   -36.36230938 -24.72637038  1.45449237 
      214   2   -37.81680175 -23.27187800  2.90898475 
      215   3   -36.36230938 -21.81738563  4.36347712 
      216   2   -37.81680175 -20.36289325  5.81796950 
      217   1   -36.36230938 -18.90840088  7.27246187 
      218   2   -37.81680175 -17.45390850  8.72695425 
      219   1   -36.36230938 -15.99941613  10.18144662 
      220   2   -37.81680175 -14.54492375  11.63593900 
      221   1   -36.36230938 -13.09043138  13.09043137 
      222   2   -37.81680175 -11.63593900  14.54492375 
      223   1   -36.36230938 -10.18144663  15.99941612 
      224   2   -37.81680175 -8.72695425  17.45390850 
      225   1   -36.36230938 -7.27246188  18.90840087 
      226   2   -34.90781700 -37.81680175 -8.72695425 
      227   1   -33.45332463 -36.36230938 -7.27246188 
      228   2   -34.90781700 -34.90781700 -5.81796950 
      229   3   -33.45332463 -33.45332463 -4.36347713 
      230   2   -34.90781700 -31.99883225 -2.90898475 
      231   3   -33.45332463 -30.54433988 -1.45449238 
      232   2   -34.90781700 -29.08984750 -0.00000000 
      233   3   -33.45332463 -27.63535513  1.45449237 
      234   2   -34.90781700 -26.18086275  2.90898475 
      235   3   -33.45332463 -24.72637038  4.36347712 
      236   2   -34.90781700 -23.27187800  5.81796950 
      237   1   -33.45332463 -21.81738563  7.27246187 
      238   2   -34.90781700 -20.36289325  8.72695425 
      239   1   -33.45332463 -18.90840088  10.18144662 
      240   2   -34.90781700 -17.45390850  11.63593900 
      241   1   -33.45332463 -15.99941613  13.09043137 
      242   2   -34.90781700 -14.54492375  14.54492375 
      243   1   -33.45332463 -13.09043138  15.99941612 
      244   2   -34.90781700 -11.63593900  17.45390850 
      245   1   -33.45332463 -10.18144663  18.90840087 
      246   2   -34.90781700 -8.72695425  20.36289325 
      247   2   -31.99883225 -37.81680175 -5.81796950 
      248   3   -30.54433988 -36.36230938 -4.36347713 
      249   2   -31.99883225 -34.90781700 -2.90898475 
      250   3   -30.54433988 -33.45332463 -1.45449238 
      251   2   -31.99883225 -31.99883225 -0.00000000 
      252   3   -30.54433988 -30.54433988  1.45449237 
      253   2   -31.99883225 -29.08984750  2.90898475 
      254   3   -30.54433988 -27.63535513  4.36347712 
      255   2   -31.99883225 -26.18086275  5.81796950 
      256   1   -30.54433988 -24.72637038  7.27246187 
      257   2   -31.99883225 -23.27187800  8.72695425 
      258   1   -30.54433988 -21.81738563  10.18144662 
      259   2   -31.99883225 -20.36289325  11.63593900 
      260   1   -30.54433988 -18.90840088  13.09043137 
      261   2   -31.99883225 -17.45390850  14.54492375 
      262   1   -30.54433988 -15.99941613  15.99941612 
      263   2   -31.99883225 -14.54492375  17.45390850 
      264   1   -30.54433988 -13.09043138  18.90840087 
      265   2   -31.99883225 -11.63593900  20.36289325 
      266   2   -29.08984750 -37.81680175 -2.90898475 
      267   3   -27.63535513 -36.36230938 -1.45449238 
      268   2   -29.08984750 -34.90781700 -0.00000000 
      269   3   -27.63535513 -33.45332463  1.45449237 
      270   2   -29.08984750 -31.99883225  2.90898475 
      271   3   -27.63535513 -30.54433988  4.36347712 
      272   2   -29.08984750 -29.08984750  5.81796950 
      273   1   -27.63535513 -27.63535513  7.27246187 
      274   2   -29.08984750 -26.18086275  8.72695425 
      275   1   -27.63535513 -24.72637038  10.18144662 
      276   2   -29.08984750 -23.27187800  11.63593900 
      277   1   -27.63535513 -21.81738563  13.09043137 
      278   2   -29.08984750 -20.36289325  14.54492375 
      279   1   -27.63535513 -18.90840088  15.99941612 
      280   2   -29.08984750 -17.45390850  17.45390850 
      281   1   -27.63535513 -15.99941613  18.90840087 
      282   2   -29.08984750 -14.54492375  20.36289325 
      283   2   -26.18086275 -37.81680175 -0.00000000 
      284   3   -24.72637038 -36.36230938  1.45449237 
      285   2   -26.18086275 -34.90781700  2.90898475 
      286   3   -24.72637038 -33.45332463  4.36347712 
      287   2   -26.18086275 -31.99883225  5.81796950 
      288   1   -24.72637038 -30.54433988  7.27246187 
      289   2   -26.18086275 -29.08984750  8.72695425 
      290   1   -24.72637038 -27.63535513  10.18144662 
      291   2   -26.18086275 -26.18086275  11.63593900 
      292   1   -24.72637038 -24.72637038  13.09043137 
      293   2   -26.18086275 -23.27187800  14.54492375 
      294   1   -24.72637038 -21.81738563  15.99941612 
      295   2   -26.18086275 -20.36289325  17.45390850 
      296   1   -24.72637038 -18.90840088  18.90840087 
      297   2   -26.18086275 -17.45390850  20.36289325 
      298   2   -23.27187800 -37.81680175  2.90898475 
      299   3   -21.81738563 -36.36230938  4.36347712 
      300   2   -23.27187800 -34.90781700  5.81796950 
      301   1   -21.81738563 -33.45332463  7.27246187 
      302   2   -23.27187800 -31.99883225  8.72695425 
      303   1   -21.81738563 -30.54433988  10.18144662 
      304   2   -23.27187800 -29.08984750  11.63593900 
      305   1   -21.81738563 -27.63535513  13.09043137 
      306   2   -23.27187800 -26.18086275  14.54492375 
      307   1   -21.81738563 -24.72637038  15.99941612 
      308   2   -23.27187800 -23.27187800  17.45390850 
      309   1   -21.81738563 -21.81738563  18.90840087 
      310   2   -23.27187800 -20.36289325  20.36289325 
      311   2   -20.36289325 -37.81680175  5.81796950 
      312   1   -18.90840088 -36.36230938  7.27246187 
      313   2   -20.36289325 -34.90781700  8.72695425 
      314   1   -18.90840088 -33.45332463  10.18144662 
      315   2   -20.36289325 -31.99883225  11.63593900 
      316   1   -18.90840088 -30.54433988  13.09043137 
      317   2   -20.36289325 -29.08984750  14.54492375 
      318   1   -18.90840088 -27.63535513  15.99941612 
      319   2   -20.36289325 -26.18086275  17.45390850 
      320   1   -18.90840088 -24.72637038  18.90840087 
      321   2   -20.36289325 -23.27187800  20.36289325 
      322   2   -17.45390850 -37.81680175  8.72695425 
      323   1   -15.99941613 -36.36230938  10.18144662 
      324   2   -17.45390850 -34.90781700  11.63593900 
      325   1   -15.99941613 -33.45332463  13.09043137 
      326   2   -17.45390850 -31.99883225  14.54492375 
      327   1   -15.99941613 -30.54433988  15.99941612 
      328   2   -17.45390850 -29.08984750  17.45390850 
      329   1   -15.99941613 -27.63535513  18.90840087 
      330   2   -17.45390850 -26.18086275  20.36289325 
      331   2   -14.54492375 -37.81680175  11.63593900 
      332   1   -13.09043138 -36.36230938  13.09043137 
      333   2   -14.54492375 -34.90781700  14.54492375 
      334   1   -13.09043138 -33.45332463  15.99941612 
      335   2   -14.54492375 -31.99883225  17.45390850 
      336   1   -13.09043138 -30.54433988  18.90840087 
      337   2   -14.54492375 -29.08984750  20.36289325 
      338   2   -11.63593900 -37.81680175  14.54492375 
      339   1   -10.18144663 -36.36230938  15.99941612 
      340   2   -11.63593900 -34.90781700  17.45390850 
      341   1   -10.18144663 -33.45332463  18.90840087 
      342   2   -11.63593900 -31.99883225  20.36289325 
      343   2   -8.72695425 -37.81680175  17.45390850 
      344   1   -7.27246188 -36.36230938  18.90840087 
      345   2   -8.72695425 -34.90781700  20.36289325 
      346   1   -36.36230938 -36.36230938 -15.99941613 
      347   2   -37.81680175 -34.90781700 -14.54492375 
      348   1   -36.36230938 -33.45332463 -13.09043138 
      349   2   -37.81680175 -31.99883225 -11.63593900 
      350   1   -36.36230938 -30.54433988 -10.18144663 
      351   2   -37.81680175 -29.08984750 -8.72695425 
      352   1   -36.36230938 -27.63535513 -7.27246188 
      353   2   -37.81680175 -26.18086275 -5.81796950 
      354   3   -36.36230938 -24.72637038 -4.36347713 
      355   2   -37.81680175 -23.27187800 -2.90898475 
      356   3   -36.36230938 -21.81738563 -1.45449238 
      357   2   -37.81680175 -20.36289325 -0.00000000 
      358   3   -36.36230938 -18.90840088  1.45449237 
      359   2   -37.81680175 -17.45390850  2.90898475 
      360   3   -36.36230938 -15.99941613  4.36347712 
      361   2   -37.81680175 -14.54492375  5.81796950 
      362   1   -36.36230938 -13.09043138  7.27246187 
      363   2   -37.81680175 -11.63593900  8.72695425 
      364   1   -36.36230938 -10.18144663  10.18144662 
      365   2   -37.81680175 -8.72695425  11.63593900 
      366   1   -36.36230938 -7.27246188  13.09043137 
      367   2   -37.81680175 -5.81796950  14.54492375 
      368   1   -36.36230938 -4.36347713  15.99941612 
      369   2   -37.81680175 -2.90898475  17.45390850 
      370   1   -36.36230938 -1.45449238  18.90840087 
      371   2   -34.90781700 -37.81680175 -14.54492375 
      372   1   -33.45332463 -36.36230938 -13.09043138 
      373   2   -34.90781700 -34.90781700 -11.63593900 
      374   1   -33.45332463 -33.45332463 -10.18144663 
      375   2   -34.90781700 -31.99883225 -8.72695425 
      376   1   -33.45332463 -30.54433988 -7.27246188 
      377   2   -34.90781700 -29.08984750 -5.81796950 
      378   3   -33.45332463 -27.63535513 -4.36347713 
      379   2   -34.90781700 -26.18086275 -2.90898475 
      380   3   -33.45332463 -24.72637038 -1.45449238 
      381   2   -34.90781700 -23.27187800 -0.00000000 
      382   3   -33.45332463 -21.81738563  1.45449237 
      383   2   -34.90781700 -20.36289325  2.90898475 
      384   3   -33.45332463 -18.90840088  4.36347712 
      385   2   -34.90781700 -17.45390850  5.81796950 
      386   1   -33.45332463 -15.99941613  7.27246187 
      387   2   -34.90781700 -14.54492375  8.72695425 
      388   1   -33.45332463 -13.09043138  10.18144662 
      389   2   -34.90781700 -11.63593900  11.63593900 
      390   1   -33.45332463 -10.18144663  13.09043137 
      391   2   -34.90781700 -8.72695425  14.54492375 
      392   1   -33.45332463 -7.27246188  15.99941612 
      393   2   -34.90781700 -5.81796950  17.45390850 
      394   1   -33.45332463 -4.36347713  18.90840087 
      395   2   -34.90781700 -2.90898475  20.36289325 
      396   2   -31.99883225 -37.81680175 -11.63593900 
      397   1   -30.54433988 -36.36230938 -10.18144663 
      398   2   -31.99883225 -34.90781700 -8.72695425 
      399   1   -30.54433988 -33.45332463 -7.27246188 
      400   2   -31.99883225 -31.99883225 -5.81796950 
      401   3   -30.54433988 -30.54433988 -4.36347713 
      402   2   -31.99883225 -29.08984750 -2.90898475 
      403   3   -30.54433988 -27.63535513 -1.45449238 
      404   2   -31.99883225 -26.18086275 -0.00000000 
      405   3   -30.54433988 -24.72637038  1.45449237 
      406   2   -31.99883225 -23.27187800  2.90898475 
      407   3   -30.54433988 -21.81738563  4.36347712 
      408   2   -31.99883225 -20.36289325  5.81796950 
      409   1   -30.54433988 -18.90840088  7.27246187 
      410   2   -31.99883225 -17.45390850  8.72695425 
      411   1   -30.54433988 -15.99941613  10.18144662 
      412   2   -31.99883225 -14.54492375  11.63593900 
      413   1   -30.54433988 -13.09043138  13.09043137 
      414   2   -31.99883225 -11.63593900  14.54492375 
      415   1   -30.54433988 -10.18144663  15.99941612 
      416   2   -31.99883225 -8.72695425  17.45390850 
      417   1   -30.54433988 -7.27246188  18.90840087 
      418   2   -31.99883225 -5.81796950  20.36289325 
      419   2   -29.08984750 -37.81680175 -8.72695425 
      420   1   -27.63535513 -36.36230938 -7.27246188 
      421   2   -29.08984750 -34.90781700 -5.81796950 
      422   3   -27.63535513 -33.45332463 -4.36347713 
      423   2   -29.08984750 -31.99883225 -2.90898475 
      424   3   -27.63535513 -30.54433988 -1.45449238 
      425   2   -29.08984750 -29.08984750 -0.00000000 
      426   3   -27.63535513 -27.63535513  1.45449237 
      427   2   -29.08984750 -26.18086275  2.90898475 
      428   3   -27.63535513 -24.72637038  4.36347712 
      429   2   -29.08984750 -23.27187800  5.81796950 
      430   1   -27.63535513 -21.81738563  7.27246187 
      431   2   -29.08984750 -20.36289325  8.72695425 
      432   1   -27.63535513 -18.90840088  10.18144662 
      433   2   -29.08984750 -17.45390850  11.63593900 
      434   1   -27.63535513 -15.99941613  13.09043137 
      435   2   -29.08984750 -14.54492375  14.54492375 
      436   1   -27.63535513 -13.09043138  15.99941612 
      437   2   -29.08984750 -11.63593900  17.45390850 
      438   1   -27.63535513 -10.18144663  18.90840087 
      439   2   -29.08984750 -8.72695425  20.36289325 
      440   2   -26.18086275 -37.81680175 -5.81796950 
      441   3   -24.72637038 -36.36230938 -4.36347713 
      442   2   -26.18086275 -34.90781700 -2.90898475 
      443   3   -24.72637038 -33.45332463 -1.45449238 
      444   2   -26.18086275 -31.99883225 -0.00000000 
      445   3   -24.72637038 -30.54433988  1.45449237 
      446   2   -26.18086275 -29.08984750  2.90898475 
      447   3   -24.72637038 -27.63535513  4.36347712 
      448   2   -26.18086275 -26.18086275  5.81796950 
      449   1   -24.72637038 -24.72637038  7.27246187 
      450   2   -26.18086275 -23.27187800  8.72695425 
      451   1   -24.72637038 -21.81738563  10.18144662 
      452   2   -26.18086275 -20.36289325  11.63593900 
      453   1   -24.72637038 -18.90840088  13.09043137 
      454   2   -26.18086275 -17.45390850  14.54492375 
      455   1   -24.72637038 -15.99941613  15.99941612 
      456   2   -26.18086275 -14.54492375  17.45390850 
      457   1   -24.72637038 -13.09043138  18.90840087 
      458   2   -26.18086275 -11.63593900  20.36289325 
      459   2   -23.27187800 -37.81680175 -2.90898475 
      460   3   -21.81738563 -36.36230938 -1.45449238 
      461   2   -23.27187800 -34.90781700 -0.00000000 
      462   3   -21.81738563 -33.45332463  1.45449237 
      463   2   -23.27187800 -31.99883225  2.90898475 
      464   3   -21.81738563 -30.54433988  4.36347712 
      465   2   -23.27187800 -29.08984750  5.81796950 
      466   1   -21.81738563 -27.63535513  7.27246187 
      467   2   -23.27187800 -26.18086275  8.72695425 
      468   1   -21.81738563 -24.72637038  10.18144662 
      469   2   -23.27187800 -23.27187800  11.63593900 
      470   1   -21.81738563 -21.81738563  13.09043137 
      471   2   -23.27187800 -20.36289325  14.54492375 
      472   1   -21.81738563 -18.90840088  15.99941612 
      473   2   -23.27187800 -17.45390850  17.45390850 
      474   1   -21.81738563 -15.99941613  18.90840087 
      475   2   -23.27187800 -14.54492375  20.36289325 
      476   2   -20.36289325 -37.81680175 -0.00000000 
      477   3   -18.90840088 -36.36230938  1.45449237 
      478   2   -20.36289325 -34.90781700  2.90898475 
      479   3   -18.90840088 -33.45332463  4.36347712 
      480   2   -20.36289325 -31.99883225  5.81796950 
      481   1   -18.90840088 -30.54433988  7.27246187 
      482   2   -20.36289325 -29.08984750  8.72695425 
      483   1   -18.90840088 -27.63535513  10.18144662 
      484   2   -20.36289325 -26.18086275  11.63593900 
      485   1   -18.90840088 -24.72637038  13.09043137 
      486   2   -20.36289325 -23.27187800  14.54492375 
      487   1   -18.90840088 -21.81738563  15.99941612 
      488   2   -20.36289325 -20.36289325  17.45390850 
      489   1   -18.90840088 -18.90840088  18.90840087 
      490   2   -20.36289325 -17.45390850  20.36289325 
      491   2   -17.45390850 -37.81680175  2.90898475 
      492   3   -15.99941613 -36.36230938  4.36347712 
      493   2   -17.45390850 -34.90781700  5.81796950 
      494   1   -15.99941613 -33.45332463  7.27246187 
      495   2   -17.45390850 -31.99883225  8.72695425 
      496   1   -15.99941613 -30.54433988  10.18144662 
      497   2   -17.45390850 -29.08984750  11.63593900 
      498   1   -15.99941613 -27.63535513  13.09043137 
      499   2   -17.45390850 -26.18086275  14.54492375 
      500   1   -15.99941613 -24.72637038  15.99941612 
      501   2   -17.45390850 -23.27187800  17.45390850 
      502   1   -15.99941613 -21.81738563  18.90840087 
      503   2   -17.45390850 -20.36289325  20.36289325 
      504   2   -14.54492375 -37.81680175  5.81796950 
      505   1   -13.09043138 -36.36230938  7.27246187 
      506   2   -14.54492375 -34.90781700  8.72695425 
      507   1   -13.09043138 -33.45332463  10.18144662 
      508   2   -14.54492375 -31.99883225  11.63593900 
      509   1   -13.09043138 -30.54433988  13.09043137 
      510   2   -14.54492375 -29.08984750  14.54492375 
      511   1   -13.09043138 -27.63535513  15.99941612 
      512   2   -14.54492375 -26.18086275  17.45390850 
      513   1   -13.09043138 -24.72637038  18.90840087 
      514   2   -14.54492375 -23.27187800  20.36289325 
      515   2   -11.63593900 -37.81680175  8.72695425 
      516   1   -10.18144663 -36.36230938  10.18144662 
      517   2   -11.63593900 -34.90781700  11.63593900 
      518   1   -10.18144663 -33.45332463  13.09043137 
      519   2   -11.63593900 -31.99883225  14.54492375 
      520   1   -10.18144663 -30.54433988  15.99941612 
      521   2   -11.63593900 -29.08984750  17.45390850 
      522   1   -10.18144663 -27.63535513  18.90840087 
      523   2   -11.63593900 -26.18086275  20.36289325 
      524   2   -8.72695425 -37.81680175  11.63593900 
      525   1   -7.27246188 -36.36230938  13.09043137 
      526   2   -8.72695425 -34.90781700  14.54492375 
      527   1   -7.27246188 -33.45332463  15.99941612 
      528   2   -8.72695425 -31.99883225  17.45390850 
      529   1   -7.27246188 -30.54433988  18.90840087 
      530   2   -8.72695425 -29.08984750  20.36289325 
      531   2   -5.81796950 -37.81680175  14.54492375 
      532   1   -4.36347713 -36.36230938  15.99941612 
      533   2   -5.81796950 -34.90781700  17.45390850 
      534   1   -4.36347713 -33.45332463  18.90840087 
      535   2   -5.81796950 -31.99883225  20.36289325 
      536   2   -2.90898475 -37.81680175  17.45390850 