LAMMPS configuration data file

  6134 atoms

  5 atom types

  -49.560498  49.560498  xlo xhi
  -49.560498  49.560498  ylo yhi
  -37.796599  37.796599  zlo zhi

 Masses

  1   32.065
  2   112.411
  3   78.960
  4   1.000
  5   1.000

 Atoms

        1   1   -27.88419799 -27.88419799  13.42209903 
        2   2   -29.32439788 -26.40129809  14.88809892 
        3   1   -27.85209799 -24.92789820  16.33239882 
        4   2   -26.40129809 -29.32439788  14.88809892 
        5   1   -24.92789820 -27.85209799  16.33239882 
        6   2   -26.37539810 -26.37539810  17.79159872 
        7   1   -27.96599798 -27.96599798  7.58461945 
        8   2   -29.41229787 -26.46189809  9.03750935 
        9   1   -27.92839798 -24.98619820  10.48779924 
       10   2   -29.36819788 -23.49519831  11.95139914 
       11   1   -27.89019799 -22.02239841  13.40129903 
       12   2   -29.32949788 -20.54139852  14.87079893 
       13   1   -27.85679799 -19.07059862  16.31879882 
       14   2   -26.46189809 -29.41229787  9.03750935 
       15   1   -24.98619820 -27.92839798  10.48779924 
       16   2   -26.43359809 -26.43359809  11.94279914 
       17   1   -24.95819820 -24.95819820  13.39419904 
       18   2   -26.40449810 -23.47419830  14.85509893 
       19   1   -24.93229820 -22.00169841  16.30469883 
       20   2   -26.37779810 -20.52519852  17.76879872 
       21   2   -23.49519831 -29.36819788  11.95139914 
       22   1   -22.02239841 -27.89019799  13.40129903 
       23   2   -23.47419830 -26.40449810  14.85509893 
       24   1   -22.00169841 -24.93229820  16.30469883 
       25   2   -23.45269831 -23.45269831  17.76129872 
       26   2   -20.54139852 -29.32949788  14.87079893 
       27   1   -19.07059862 -27.85679799  16.31879882 
       28   2   -20.52519852 -26.37779810  17.76879872 
       29   2   -29.51359787 -26.52609809  3.05548978 
       30   3   -28.01709798 -25.04399819  4.59417967 
       31   2   -29.47389787 -23.53679830  6.13504956 
       32   1   -27.97789798 -22.06549841  7.58028945 
       33   2   -29.42599788 -20.57219851  9.03461935 
       34   1   -27.93669799 -19.10429862  10.48519925 
       35   2   -29.37699788 -17.61869873  11.94969914 
       36   1   -27.89629799 -16.15109883  13.40039903 
       37   2   -29.33409788 -14.67239894  14.87029893 
       38   1   -27.85869799 -13.20429905  16.31799882 
       39   2   -26.52609809 -29.51359787  3.05548978 
       40   3   -25.04399819 -28.01709798  4.59417967 
       41   2   -26.50249809 -26.50249809  6.13128956 
       42   1   -25.01959819 -25.01959819  7.57640945 
       43   2   -26.47389809 -23.52209830  9.02508935 
       44   1   -24.99279820 -22.04709841  10.47699924 
       45   2   -26.44159809 -20.55889852  11.93339914 
       46   1   -24.96429820 -19.08869862  13.38589903 
       47   2   -26.41029810 -17.60819873  14.84889893 
       48   1   -24.93539820 -16.13859884  16.29939882 
       49   2   -26.37949810 -14.66349894  17.76489872 
       50   2   -23.53679830 -29.47389787  6.13504956 
       51   1   -22.06549841 -27.97789798  7.58028945 
       52   2   -23.52209830 -26.47389809  9.02508935 
       53   1   -22.04709841 -24.99279820  10.47699924 
       54   2   -23.50089830 -23.50089830  11.92799914 
       55   1   -22.02629841 -22.02629841  13.38019903 
       56   2   -23.47839831 -20.54329852  14.83709893 
       57   1   -22.00539841 -19.07319863  16.28939882 
       58   2   -23.45509830 -17.59589873  17.74889872 
       59   2   -20.57219851 -29.42599788  9.03461935 
       60   1   -19.10429862 -27.93669799  10.48519925 
       61   2   -20.55889852 -26.44159809  11.93339914 
       62   1   -19.08869862 -24.96429820  13.38589903 
       63   2   -20.54329852 -23.47839831  14.83709893 
       64   1   -19.07319863 -22.00539841  16.28939882 
       65   2   -20.52679852 -20.52679852  17.74279872 
       66   2   -17.61869873 -29.37699788  11.94969914 
       67   1   -16.15109883 -27.89629799  13.40039903 
       68   2   -17.60819873 -26.41029810  14.84889893 
       69   1   -16.13859884 -24.93539820  16.29939882 
       70   2   -17.59589873 -23.45509830  17.74889872 
       71   2   -14.67239894 -29.33409788  14.87029893 
       72   1   -13.20429905 -27.85869799  16.31799882 
       73   2   -14.66349894 -26.37949810  17.76489872 
       74   3   -28.01479798 -28.01479798 -4.59206967 
       75   2   -29.52809787 -26.54809808 -3.05985978 
       76   2   -29.53469787 -20.60249851  3.05716978 
       77   3   -28.02999798 -19.13329862  4.59577967 
       78   2   -29.48779787 -17.63659873  6.13899955 
       79   1   -27.98709798 -16.17329883  7.58410945 
       80   2   -29.43679787 -14.68629894  9.03881935 
       81   1   -27.94429798 -13.22309905  10.48899924 
       82   2   -29.38479788 -11.74179915  11.95439914 
       83   1   -27.90069799 -10.27679926  13.40339903 
       84   2   -29.33789788 -8.80074936  14.87399892 
       85   1   -27.85939799 -7.33595947  16.32109882 
       86   2   -26.54809808 -29.52809787 -3.05985978 
       87   2   -26.54519808 -23.56769830  3.05609978 
       88   3   -25.05489819 -22.08909840  4.59394967 
       89   2   -26.51729809 -20.59199852  6.13374956 
       90   1   -25.02799819 -19.12029862  7.57820945 
       91   2   -26.48449809 -17.63249873  9.02808935 
       92   1   -24.99949819 -16.16479883  10.47949924 
       93   2   -26.44979809 -14.68169894  11.93539914 
       94   1   -24.96909820 -13.21519904  13.38719903 
       95   2   -26.41469809 -11.73719915  14.84969893 
       96   1   -24.93659820 -10.27139926  16.30009883 
       97   2   -26.38129809 -8.79887937  17.76589872 
       98   2   -23.56769830 -26.54519808  3.05609978 
       99   3   -22.08909840 -25.05489819  4.59394967 
      100   2   -23.55139830 -23.55139830  6.13183956 
      101   1   -22.07089841 -22.07089841  7.57683945 
      102   2   -23.53099830 -20.57919851  9.02355935 
      103   1   -22.05139841 -19.10659862  10.47539924 
      104   2   -23.50779830 -17.62219873  11.92749914 
      105   1   -22.03069841 -16.15289883  13.37989903 
      106   2   -23.48319830 -14.67329894  14.83639893 
      107   1   -22.00709841 -13.20659905  16.28839882 
      108   2   -23.45679831 -11.73229916  17.74859872 
      109   2   -20.60249851 -29.53469787  3.05716978 
      110   3   -19.13329862 -28.02999798  4.59577967 
      111   2   -20.59199852 -26.51729809  6.13374956 
      112   1   -19.12029862 -25.02799819  7.57820945 
      113   2   -20.57919851 -23.53099830  9.02355935 
      114   1   -19.10659862 -22.05139841  10.47539924 
      115   2   -20.56399852 -20.56399852  11.92409914 
      116   1   -19.09209862 -19.09209862  13.37759903 
      117   2   -20.54739852 -17.61059873  14.83059893 
      118   1   -19.07489862 -16.14049884  16.28289882 
      119   2   -20.52799852 -14.66459894  17.73879872 
      120   2   -17.63659873 -29.48779787  6.13899955 
      121   1   -16.17329883 -27.98709798  7.58410945 
      122   2   -17.63249873 -26.48449809  9.02808935 
      123   1   -16.16479883 -24.99949819  10.47949924 
      124   2   -17.62219873 -23.50779830  11.92749914 
      125   1   -16.15289883 -22.03069841  13.37989903 
      126   2   -17.61059873 -20.54739852  14.83059893 
      127   1   -16.14049884 -19.07489862  16.28289882 
      128   2   -17.59619873 -17.59619873  17.73479872 
      129   2   -14.68629894 -29.43679787  9.03881935 
      130   1   -13.22309905 -27.94429798  10.48899924 
      131   2   -14.68169894 -26.44979809  11.93539914 
      132   1   -13.21519904 -24.96909820  13.38719903 
      133   2   -14.67329894 -23.48319830  14.83639893 
      134   1   -13.20659905 -22.00709841  16.28839882 
      135   2   -14.66459894 -20.52799852  17.73879872 
      136   2   -11.74179915 -29.38479788  11.95439914 
      137   1   -10.27679926 -27.90069799  13.40339903 
      138   2   -11.73719915 -26.41469809  14.84969893 
      139   1   -10.27139926 -24.93659820  16.30009883 
      140   2   -11.73229916 -23.45679831  17.74859872 
      141   2   -8.80074936 -29.33789788  14.87399892 
      142   1   -7.33595947 -27.85939799  16.32109882 
      143   2   -8.79887937 -26.38129809  17.76589872 
      144   1   -27.93929798 -27.93929798 -10.49489924 
      145   2   -29.43999787 -26.49489808 -9.03864935 
      146   1   -27.98279798 -25.02569819 -7.57908945 
      147   2   -29.49169787 -23.57019830 -6.13756956 
      148   3   -28.02779798 -22.08699841 -4.59353967 
      149   2   -29.54209787 -20.62299851 -3.06108978 
      150   2   -29.54749787 -14.69929894  3.06099978 
      151   3   -28.03889798 -13.23659904  4.59984967 
      152   2   -29.49849787 -11.74649915  6.14475956 
      153   1   -27.99529798 -10.28689926  7.58945945 
      154   2   -29.44489787 -8.80340937  9.04542935 
      155   1   -27.94969798 -7.34272947  10.49489924 
      156   2   -29.38909788 -5.86340958  11.96049914 
      157   1   -27.90239798 -4.40135968  13.40909903 
      158   2   -29.34069788 -2.92721979  14.87949893 
      159   1   -27.86139799 -1.46367989  16.32599882 
      160   2   -26.49489808 -29.43999787 -9.03864935 
      161   1   -25.02569819 -27.98279798 -7.57908945 
      162   2   -26.52639808 -26.52639808 -6.13622956 
      163   3   -25.05199819 -25.05199819 -4.59363967 
      164   2   -26.55439808 -23.58119830 -3.06317978 
      165   2   -26.55899808 -17.65429873  3.05978978 
      166   3   -25.06329819 -16.18469883  4.59801967 
      167   2   -26.52819808 -14.69609894  6.13906955 
      168   1   -25.03579819 -13.23049904  7.58359945 
      169   2   -26.49429809 -11.74769915  9.03263935 
      170   1   -25.00669820 -10.28339926  10.48319924 
      171   2   -26.45619809 -8.80326936  11.94009914 
      172   1   -24.97189820 -7.34015947  13.39109904 
      173   2   -26.41759810 -5.86516958  14.85409893 
      174   1   -24.93849820 -4.40148968  16.30399882 
      175   2   -26.38339810 -2.92927979  17.76969872 
      176   2   -23.57019830 -29.49169787 -6.13756956 
      177   3   -22.08699841 -28.02779798 -4.59353967 
      178   2   -23.58119830 -26.55439808 -3.06317978 
      179   2   -23.58079830 -20.61359851  3.05822978 
      180   3   -22.09529841 -19.13679862  4.59620967 
      181   2   -23.56169830 -17.64719873  6.13660956 
      182   1   -22.07709841 -16.17579883  7.58072945 
      183   2   -23.54009830 -14.69239894  9.02796935 
      184   1   -22.05779841 -13.22439904  10.47859924 
      185   2   -23.51549830 -11.74419915  11.92989914 
      186   1   -22.03469841 -10.27889926  13.38139903 
      187   2   -23.48699830 -8.80211937  14.83799893 
      188   1   -22.00899841 -7.33845947  16.28979882 
      189   2   -23.45969830 -5.86570958  17.74979872 
      190   2   -20.62299851 -29.54209787 -3.06108978 
      191   2   -20.61359851 -23.58079830  3.05822978 
      192   3   -19.13679862 -22.09529841  4.59620967 
      193   2   -20.60069851 -20.60069851  6.13565956 
      194   1   -19.12369862 -19.12369862  7.57917945 
      195   2   -20.58649851 -17.63849873  9.02558935 
      196   1   -19.11089862 -16.16649883  10.47589924 
      197   2   -20.57049852 -14.68559894  11.92559914 
      198   1   -19.09539862 -13.21759905  13.37759903 
      199   2   -20.55149851 -11.73999915  14.83039893 
      200   1   -19.07609862 -10.27359926  16.28349883 
      201   2   -20.53119852 -8.80032937  17.73849872 
      202   2   -17.65429873 -26.55899808  3.05978978 
      203   3   -16.18469883 -25.06329819  4.59801967 
      204   2   -17.64719873 -23.56169830  6.13660956 
      205   1   -16.17579883 -22.07709841  7.58072945 
      206   2   -17.63849873 -20.58649851  9.02558935 
      207   1   -16.16649883 -19.11089862  10.47589924 
      208   2   -17.62729873 -17.62729873  11.92459914 
      209   1   -16.15549883 -16.15549883  13.37639903 
      210   2   -17.61389873 -14.67669894  14.82749893 
      211   1   -16.14139883 -13.20769905  16.28039882 
      212   2   -17.59719873 -11.73289915  17.73409872 
      213   2   -14.69929894 -29.54749787  3.06099978 
      214   3   -13.23659904 -28.03889798  4.59984967 
      215   2   -14.69609894 -26.52819808  6.13906955 
      216   1   -13.23049904 -25.03579819  7.58359945 
      217   2   -14.69239894 -23.54009830  9.02796935 
      218   1   -13.22439904 -22.05779841  10.47859924 
      219   2   -14.68559894 -20.57049852  11.92559914 
      220   1   -13.21759905 -19.09539862  13.37759903 
      221   2   -14.67669894 -17.61389873  14.82749893 
      222   1   -13.20769905 -16.14139883  16.28039882 
      223   2   -14.66479894 -14.66479894  17.73259872 
      224   2   -11.74649915 -29.49849787  6.14475956 
      225   1   -10.28689926 -27.99529798  7.58945945 
      226   2   -11.74769915 -26.49429809  9.03263935 
      227   1   -10.28339926 -25.00669820  10.48319924 
      228   2   -11.74419915 -23.51549830  11.92989914 
      229   1   -10.27889926 -22.03469841  13.38139903 
      230   2   -11.73999915 -20.55149851  14.83039893 
      231   1   -10.27359926 -19.07609862  16.28349883 
      232   2   -11.73289915 -17.59719873  17.73409872 
      233   2   -8.80340937 -29.44489787  9.04542935 
      234   1   -7.34272947 -27.94969798  10.49489924 
      235   2   -8.80326936 -26.45619809  11.94009914 
      236   1   -7.34015947 -24.97189820  13.39109904 
      237   2   -8.80211937 -23.48699830  14.83799893 
      238   1   -7.33845947 -22.00899841  16.28979882 
      239   2   -8.80032937 -20.53119852  17.73849872 
      240   2   -5.86340958 -29.38909788  11.96049914 
      241   1   -4.40135968 -27.90239798  13.40909903 
      242   2   -5.86516958 -26.41759810  14.85409893 
      243   1   -4.40148968 -24.93849820  16.30399882 
      244   2   -5.86570958 -23.45969830  17.74979872 
      245   2   -2.92721979 -29.34069788  14.87949893 
      246   1   -1.46367989 -27.86139799  16.32599882 
      247   2   -2.92927979 -26.38339810  17.76969872 
      248   1   -27.86579799 -27.86579799 -16.35339882 
      249   2   -29.34649788 -26.42469809 -14.88999893 
      250   1   -27.90069799 -24.97119820 -13.40889903 
      251   2   -29.39119788 -23.52319830 -11.95339914 
      252   1   -27.94379798 -22.05599841 -10.48529924 
      253   2   -29.44489787 -20.60279851 -9.03635935 
      254   1   -27.99159798 -19.12519862 -7.58158945 
      255   2   -29.50049787 -17.66749872 -6.14133956 
      256   3   -28.03909798 -16.18159883 -4.59806967 
      257   2   -29.55249787 -14.71909894 -3.06415978 
      258   2   -29.55529787 -8.80936936  3.06590978 
      259   3   -28.04519797 -7.34877947  4.60453967 
      260   2   -29.50499787 -5.86183958  6.15051956 
      261   1   -27.99909798 -4.40492968  7.59518945 
      262   2   -29.44829787 -2.92280979  9.05061935 
      263   1   -27.95079798 -1.46462989  10.49889924 
      264   2   -29.39169788  0.01269510  11.96379914 
      265   1   -27.90389798  1.47286990  13.41169903 
      266   2   -29.34309788  2.94614979  14.88119893 
      267   1   -27.86179799  4.40829968  16.32579882 
      268   2   -26.42469809 -29.34649788 -14.88999893 
      269   1   -24.97119820 -27.90069799 -13.40889903 
      270   2   -26.45909809 -26.45909809 -11.94529914 
      271   1   -25.00069819 -25.00069819 -10.48009924 
      272   2   -26.49559809 -23.54739830 -9.02861935 
      273   1   -25.03169819 -22.07539841 -7.57796945 
      274   2   -26.53199809 -20.61409851 -6.13784956 
      275   3   -25.06209819 -19.13419862 -4.59758967 
      276   2   -26.56479808 -17.66669872 -3.06513978 
      277   2   -26.56819808 -11.75729915  3.06421978 
      278   3   -25.07029819 -10.29239925  4.60266967 
      279   2   -26.53669808 -8.80869937  6.14440956 
      280   1   -25.04239819 -7.34554947  7.58866945 
      281   2   -26.49969809 -5.86606958  9.03960935 
      282   1   -25.00929820 -4.40460968  10.48979924 
      283   2   -26.45879809 -2.92615979  11.94589914 
      284   1   -24.97329820 -1.46512990  13.39679903 
      285   2   -26.42029809  0.00879293  14.85869893 
      286   1   -24.93929820  1.47098989  16.30729882 
      287   2   -26.38489810  2.94169979  17.77169872 
      288   2   -23.52319830 -29.39119788 -11.95339914 
      289   1   -22.05599841 -27.94379798 -10.48529924 
      290   2   -23.54739830 -26.49559809 -9.02861935 
      291   1   -22.07539841 -25.03169819 -7.57796945 
      292   2   -23.56789830 -23.56789830 -6.13732956 
      293   3   -22.09309841 -22.09309841 -4.59740967 
      294   2   -23.58699830 -20.62169851 -3.06587978 
      295   2   -23.59059830 -14.70749894  3.06300978 
      296   3   -22.10169840 -13.23749904  4.60085967 
      297   2   -23.57059830 -11.75529915  6.14225956 
      298   1   -22.08389841 -10.28849926  7.58611945 
      299   2   -23.54789830 -8.80851936  9.03263935 
      300   1   -22.06339841 -7.34362947  10.48369925 
      301   2   -23.51969830 -5.86620958  11.93609914 
      302   1   -22.03719841 -4.40332968  13.38739903 
      303   2   -23.48989830 -2.92882979  14.84409893 
      304   1   -22.01079841 -1.46725989  16.29589883 
      305   2   -23.46149831  0.00520706  17.75489872 
      306   2   -20.60279851 -29.44489787 -9.03635935 
      307   1   -19.12519862 -27.99159798 -7.58158945 
      308   2   -20.61409851 -26.53199809 -6.13784956 
      309   3   -19.13419862 -25.06209819 -4.59758967 
      310   2   -20.62169851 -23.58699830 -3.06587978 
      311   2   -20.62179851 -17.66149873  3.06099978 
      312   3   -19.14049862 -16.18629883  4.59922967 
      313   2   -20.60839851 -14.70229894  6.14061956 
      314   1   -19.12889862 -13.23149905  7.58402945 
      315   2   -20.59439851 -11.75259915  9.03025935 
      316   1   -19.11649862 -10.28419926  10.48029924 
      317   2   -20.57699852 -8.80675937  11.92969914 
      318   1   -19.09939862 -7.34194947  13.38209903 
      319   2   -20.55559852 -5.86710957  14.83499893 
      320   1   -19.07899862 -4.40414968  16.28789882 
      321   2   -20.53389852 -2.93188979  17.74349872 
      322   2   -17.66749872 -29.50049787 -6.14133956 
      323   3   -16.18159883 -28.03909798 -4.59806967 
      324   2   -17.66669872 -26.56479808 -3.06513978 
      325   2   -17.66149873 -20.62179851  3.06099978 
      326   3   -16.18629883 -19.14049862  4.59922967 
      327   2   -17.65329872 -17.65329872  6.13952956 
      328   1   -16.17839883 -16.17839883  7.58273945 
      329   2   -17.64469873 -14.69729894  9.02848935 
      330   1   -16.17019883 -13.22629904  10.47799924 
      331   2   -17.63289873 -11.74829915  11.92699914 
      332   1   -16.15909883 -10.27989926  13.37909903 
      333   2   -17.61819873 -8.80430937  14.83019893 
      334   1   -16.14329883 -7.33983947  16.28269882 
      335   2   -17.60119873 -5.86719958  17.73549872 
      336   2   -14.71909894 -29.55249787 -3.06415978 
      337   2   -14.70749894 -23.59059830  3.06300978 
      338   3   -13.23749904 -22.10169840  4.60085967 
      339   2   -14.70229894 -20.60839851  6.14061956 
      340   1   -13.23149905 -19.12889862  7.58402945 
      341   2   -14.69729894 -17.64469873  9.02848935 
      342   1   -13.22629904 -16.17019883  10.47799924 
      343   2   -14.69009894 -14.69009894  11.92559914 
      344   1   -13.21949905 -13.21949905  13.37729904 
      345   2   -14.67999894 -11.74229915  14.82729893 
      346   1   -13.20819905 -10.27349926  16.27919882 
      347   2   -14.66709894 -8.80073937  17.73239872 
      348   2   -11.75729915 -26.56819808  3.06421978 
      349   3   -10.29239925 -25.07029819  4.60266967 
      350   2   -11.75529915 -23.57059830  6.14225956 
      351   1   -10.28849926 -22.08389841  7.58611945 
      352   2   -11.75259915 -20.59439851  9.03025935 
      353   1   -10.28419926 -19.11649862  10.48029924 
      354   2   -11.74829915 -17.63289873  11.92699914 
      355   1   -10.27989926 -16.15909883  13.37909903 
      356   2   -11.74229915 -14.67999894  14.82729893 
      357   1   -10.27349926 -13.20819905  16.27919882 
      358   2   -11.73329915 -11.73329915  17.73079872 
      359   2   -8.80936936 -29.55529787  3.06590978 
      360   3   -7.34877947 -28.04519797  4.60453967 
      361   2   -8.80869937 -26.53669808  6.14440956 
      362   1   -7.34554947 -25.04239819  7.58866945 
      363   2   -8.80851936 -23.54789830  9.03263935 
      364   1   -7.34362947 -22.06339841  10.48369925 
      365   2   -8.80675937 -20.57699852  11.92969914 
      366   1   -7.34194947 -19.09939862  13.38209903 
      367   2   -8.80430937 -17.61819873  14.83019893 
      368   1   -7.33983947 -16.14329883  16.28269882 
      369   2   -8.80073937 -14.66709894  17.73239872 
      370   2   -5.86183958 -29.50499787  6.15051956 
      371   1   -4.40492968 -27.99909798  7.59518945 
      372   2   -5.86606958 -26.49969809  9.03960935 
      373   1   -4.40460968 -25.00929820  10.48979924 
      374   2   -5.86620958 -23.51969830  11.93609914 
      375   1   -4.40332968 -22.03719841  13.38739903 
      376   2   -5.86710957 -20.55559852  14.83499893 
      377   1   -4.40414968 -19.07899862  16.28789882 
      378   2   -5.86719958 -17.60119873  17.73549872 
      379   2   -2.92280979 -29.44829787  9.05061935 
      380   1   -1.46462989 -27.95079798  10.49889924 
      381   2   -2.92615979 -26.45879809  11.94589914 
      382   1   -1.46512990 -24.97329820  13.39679903 
      383   2   -2.92882979 -23.48989830  14.84409893 
      384   1   -1.46725989 -22.01079841  16.29589883 
      385   2   -2.93188979 -20.53389852  17.74349872 
      386   2    0.01269510 -29.39169788  11.96379914 
      387   1    1.47286990 -27.90389798  13.41169903 
      388   2    0.00879293 -26.42029809  14.85869893 
      389   1    1.47098989 -24.93929820  16.30729882 
      390   2    0.00520706 -23.46149831  17.75489872 
      391   2    2.94614979 -29.34309788  14.88119893 
      392   1    4.40829968 -27.86179799  16.32579882 
      393   2    2.94169979 -26.38489810  17.77169872 
      394   1   -27.86439799 -22.01449841 -16.32549882 
      395   2   -29.34649788 -20.56329852 -14.87339893 
      396   1   -27.90229799 -19.09939862 -13.40119903 
      397   2   -29.39309788 -17.64409873 -11.95249914 
      398   1   -27.94869798 -16.17119883 -10.48809924 
      399   2   -29.44869787 -14.71449894 -9.04184935 
      400   1   -27.99759798 -13.23359904 -7.58789945 
      401   2   -29.50539787 -11.77599915 -6.14722956 
      402   3   -28.04529798 -10.28959926 -4.60283967 
      403   2   -29.55839787 -8.82976936 -3.06662978 
      404   2   -29.55959787 -2.92654979  3.06819978 
      405   3   -28.04749797 -1.46915989  4.60760967 
      406   2   -29.50649787  0.01726130  6.15302956 
      407   1   -27.99919798  1.47269989  7.59664945 
      408   2   -29.44909787  2.95367979  9.05152935 
      409   1   -27.95059798  4.41082968  10.49869924 
      410   2   -29.39269788  5.88760958  11.96259914 
      411   1   -27.90369799  7.34723947  13.40859903 
      412   2   -29.34459788  8.81865937  14.87769893 
      413   1   -27.86299799  10.27899926  16.32259882 
      414   2   -26.39249809 -26.39249809 -17.79659872 
      415   1   -24.94159820 -24.94159820 -16.31819882 
      416   2   -26.42449810 -23.49529830 -14.85819893 
      417   1   -24.97109820 -22.03479841 -13.38959904 
      418   2   -26.46039809 -20.58249851 -11.93639914 
      419   1   -25.00499819 -19.11339862 -10.47909925 
      420   2   -26.49949808 -17.65549872 -9.03114935 
      421   1   -25.03869819 -16.17889883 -7.58184945 
      422   2   -26.53809809 -14.71619894 -6.14236956 
      423   3   -25.07079819 -13.23449905 -4.60116967 
      424   2   -26.57239808 -11.76929915 -3.06666978 
      425   2   -26.57409808 -5.87007958  3.06808978 
      426   3   -25.07469819 -4.40789968  4.60700967 
      427   2   -26.53999809 -2.92687979  6.15020955 
      428   1   -25.04309819 -1.46638989  7.59337945 
      429   2   -26.50069809  0.01224040  9.04296935 
      430   1   -25.00879819  1.47197989  10.49149924 
      431   2   -26.46019809  2.94811979  11.94679914 
      432   1   -24.97339820  4.40834968  13.39549903 
      433   2   -26.42169809  5.88142957  14.85629893 
      434   1   -24.93949820  7.34194947  16.30389883 
      435   2   -26.38699809  8.81070936  17.76829872 
      436   1   -22.01449841 -27.86439799 -16.32549882 
      437   2   -23.49529830 -26.42449810 -14.85819893 
      438   1   -22.03479841 -24.97109820 -13.38959904 
      439   2   -23.52239830 -23.52239830 -11.93159914 
      440   1   -22.05749841 -22.05749841 -10.47689924 
      441   2   -23.54829830 -20.59909851 -9.02748935 
      442   1   -22.07999841 -19.12699862 -7.58082945 
      443   2   -23.57239830 -17.66179873 -6.14141956 
      444   3   -22.10149841 -16.18429883 -4.60074967 
      445   2   -23.59499830 -14.71489894 -3.06761978 
      446   2   -23.59839830 -8.81492936  3.06705978 
      447   3   -22.10819840 -7.34821947  4.60528967 
      448   2   -23.57689830 -5.86994958  6.14811955 
      449   1   -22.08819841 -4.40617968  7.59262945 
      450   2   -23.55079830 -2.92852979  9.04005935 
      451   1   -22.06359841 -1.46594989  10.48929924 
      452   2   -23.52129830  0.00945985  11.94009914 
      453   1   -22.03749841  1.47015989  13.39079903 
      454   2   -23.49169831  2.94403979  14.84499893 
      455   1   -22.01019841  4.40516968  16.29379882 
      456   2   -23.46259831  5.87489958  17.75169872 
      457   2   -20.56329852 -29.34649788 -14.87339893 
      458   1   -19.09939862 -27.90229799 -13.40119903 
      459   2   -20.58249851 -26.46039809 -11.93639914 
      460   1   -19.11339862 -25.00499819 -10.47909925 
      461   2   -20.59909851 -23.54829830 -9.02748935 
      462   1   -19.12699862 -22.07999841 -7.58082945 
      463   2   -20.61359851 -20.61359851 -6.14102956 
      464   3   -19.13939862 -19.13939862 -4.60079967 
      465   2   -20.62619851 -17.66659872 -3.06759978 
      466   2   -20.62909851 -11.76149915  3.06564978 
      467   3   -19.14589862 -10.29109926  4.60379967 
      468   2   -20.61679851 -8.81354937  6.14573956 
      469   1   -19.13559862 -7.34589947  7.58996945 
      470   2   -20.60049851 -5.87026958  9.03709935 
      471   1   -19.12009862 -4.40586968  10.48739924 
      472   2   -20.57949851 -2.93011979  11.93649914 
      473   1   -19.09989862 -1.46805989  13.38899903 
      474   2   -20.55759851  0.00550668  14.84079893 
      475   1   -19.07899862  1.46832989  16.29129883 
      476   2   -20.53469852  2.93971979  17.74429872 
      477   2   -17.64409873 -29.39309788 -11.95249914 
      478   1   -16.17119883 -27.94869798 -10.48809924 
      479   2   -17.65549872 -26.49949808 -9.03114935 
      480   1   -16.17889883 -25.03869819 -7.58184945 
      481   2   -17.66179873 -23.57239830 -6.14141956 
      482   3   -16.18429883 -22.10149841 -4.60074967 
      483   2   -17.66659872 -20.62619851 -3.06759978 
      484   2   -17.66649873 -14.71099894  3.06518978 
      485   3   -16.18879883 -13.23669904  4.60292967 
      486   2   -17.65989873 -11.75839915  6.14480956 
      487   1   -16.18339883 -10.28819926  7.58844945 
      488   2   -17.65169872 -8.81190937  9.03416935 
      489   1   -16.17589883 -7.34524947  10.48499924 
      490   2   -17.63789872 -5.87007958  11.93409914 
      491   1   -16.16109883 -4.40571968  13.38619903 
      492   2   -17.62089873 -2.93269979  14.83689893 
      493   1   -16.14489883 -1.46927989  16.28889883 
      494   2   -17.60279873  0.00315426  17.74119872 
      495   2   -14.71449894 -29.44869787 -9.04184935 
      496   1   -13.23359904 -27.99759798 -7.58789945 
      497   2   -14.71619894 -26.53809809 -6.14236956 
      498   3   -13.23449905 -25.07079819 -4.60116967 
      499   2   -14.71489894 -23.59499830 -3.06761978 
      500   2   -14.71099894 -17.66649873  3.06518978 
      501   3   -13.23669904 -16.18879883  4.60292967 
      502   2   -14.70649894 -14.70649894  6.14395955 
      503   1   -13.23389904 -13.23389904  7.58794945 
      504   2   -14.70309894 -11.75659915  9.03219935 
      505   1   -13.23119904 -10.28649926  10.48239924 
      506   2   -14.69599894 -8.81038936  11.93059914 
      507   1   -13.22259905 -7.34345947  13.38179903 
      508   2   -14.68299894 -5.87045958  14.83299893 
      509   1   -13.20979904 -4.40480968  16.28509883 
      510   2   -14.66969894 -2.93298979  17.73769872 
      511   2   -11.77599915 -29.50539787 -6.14722956 
      512   3   -10.28959926 -28.04529798 -4.60283967 
      513   2   -11.76929915 -26.57239808 -3.06666978 
      514   2   -11.76149915 -20.62909851  3.06564978 
      515   3   -10.29109926 -19.14589862  4.60379967 
      516   2   -11.75839915 -17.65989873  6.14480956 
      517   1   -10.28819926 -16.18339883  7.58844945 
      518   2   -11.75659915 -14.70309894  9.03219935 
      519   1   -10.28649926 -13.23119904  10.48239924 
      520   2   -11.75289915 -11.75289915  11.92879914 
      521   1   -10.28239926 -10.28239926  13.37929903 
      522   2   -11.74529915 -8.80728936  14.82819893 
      523   1   -10.27419926 -7.33953947  16.28029882 
      524   2   -11.73539915 -5.86781958  17.73359872 
      525   2   -8.82976936 -29.55839787 -3.06662978 
      526   2   -8.81492936 -23.59839830  3.06705978 
      527   3   -7.34821947 -22.10819840  4.60528967 
      528   2   -8.81354937 -20.61679851  6.14573956 
      529   1   -7.34589947 -19.13559862  7.58996945 
      530   2   -8.81190937 -17.65169872  9.03416935 
      531   1   -7.34524947 -16.17589883  10.48499924 
      532   2   -8.81038936 -14.69599894  11.93059914 
      533   1   -7.34345947 -13.22259905  13.38179903 
      534   2   -8.80728936 -11.74529915  14.82819893 
      535   1   -7.33953947 -10.27419926  16.28029882 
      536   2   -8.80215937 -8.80215937  17.73069872 
      537   2   -5.87007958 -26.57409808  3.06808978 
      538   3   -4.40789968 -25.07469819  4.60700967 