LAMMPS configuration data file

  6827 atoms

  5 atom types

  -49.580998  49.580998  xlo xhi
  -49.580998  49.580998  ylo yhi
  -37.796599  37.796599  zlo zhi

 Masses

  1   32.065
  2   112.411
  3   78.960
  4   1.000
  5   1.000

 Atoms

        1   1   -27.88419799 -27.88419799  13.42209903 
        2   2   -29.32439788 -26.40129809  14.88809892 
        3   1   -27.85209799 -24.92789820  16.33239882 
        4   2   -26.40129809 -29.32439788  14.88809892 
        5   1   -24.92789820 -27.85209799  16.33239882 
        6   2   -26.37539810 -26.37539810  17.79159872 
        7   1   -27.96599798 -27.96599798  7.58461945 
        8   2   -29.41229787 -26.46189809  9.03750935 
        9   1   -27.92839798 -24.98619820  10.48779924 
       10   2   -29.36819788 -23.49519831  11.95139914 
       11   1   -27.89019799 -22.02239841  13.40129903 
       12   2   -29.32949788 -20.54139852  14.87079893 
       13   1   -27.85679799 -19.07059862  16.31879882 
       14   2   -26.46189809 -29.41229787  9.03750935 
       15   1   -24.98619820 -27.92839798  10.48779924 
       16   2   -26.43359809 -26.43359809  11.94279914 
       17   1   -24.95819820 -24.95819820  13.39419904 
       18   2   -26.40449810 -23.47419830  14.85509893 
       19   1   -24.93229820 -22.00169841  16.30469883 
       20   2   -26.37779810 -20.52519852  17.76879872 
       21   2   -23.49519831 -29.36819788  11.95139914 
       22   1   -22.02239841 -27.89019799  13.40129903 
       23   2   -23.47419830 -26.40449810  14.85509893 
       24   1   -22.00169841 -24.93229820  16.30469883 
       25   2   -23.45269831 -23.45269831  17.76129872 
       26   2   -20.54139852 -29.32949788  14.87079893 
       27   1   -19.07059862 -27.85679799  16.31879882 
       28   2   -20.52519852 -26.37779810  17.76879872 
       29   3   -28.03709797 -28.03709797  1.52989989 
       30   2   -29.51359787 -26.52609809  3.05548978 
       31   3   -28.01709798 -25.04399819  4.59417967 
       32   2   -29.47389787 -23.53679830  6.13504956 
       33   1   -27.97789798 -22.06549841  7.58028945 
       34   2   -29.42599788 -20.57219851  9.03461935 
       35   1   -27.93669799 -19.10429862  10.48519925 
       36   2   -29.37699788 -17.61869873  11.94969914 
       37   1   -27.89629799 -16.15109883  13.40039903 
       38   2   -29.33409788 -14.67239894  14.87029893 
       39   1   -27.85869799 -13.20429905  16.31799882 
       40   2   -26.52609809 -29.51359787  3.05548978 
       41   3   -25.04399819 -28.01709798  4.59417967 
       42   2   -26.50249809 -26.50249809  6.13128956 
       43   1   -25.01959819 -25.01959819  7.57640945 
       44   2   -26.47389809 -23.52209830  9.02508935 
       45   1   -24.99279820 -22.04709841  10.47699924 
       46   2   -26.44159809 -20.55889852  11.93339914 
       47   1   -24.96429820 -19.08869862  13.38589903 
       48   2   -26.41029810 -17.60819873  14.84889893 
       49   1   -24.93539820 -16.13859884  16.29939882 
       50   2   -26.37949810 -14.66349894  17.76489872 
       51   2   -23.53679830 -29.47389787  6.13504956 
       52   1   -22.06549841 -27.97789798  7.58028945 
       53   2   -23.52209830 -26.47389809  9.02508935 
       54   1   -22.04709841 -24.99279820  10.47699924 
       55   2   -23.50089830 -23.50089830  11.92799914 
       56   1   -22.02629841 -22.02629841  13.38019903 
       57   2   -23.47839831 -20.54329852  14.83709893 
       58   1   -22.00539841 -19.07319863  16.28939882 
       59   2   -23.45509830 -17.59589873  17.74889872 
       60   2   -20.57219851 -29.42599788  9.03461935 
       61   1   -19.10429862 -27.93669799  10.48519925 
       62   2   -20.55889852 -26.44159809  11.93339914 
       63   1   -19.08869862 -24.96429820  13.38589903 
       64   2   -20.54329852 -23.47839831  14.83709893 
       65   1   -19.07319863 -22.00539841  16.28939882 
       66   2   -20.52679852 -20.52679852  17.74279872 
       67   2   -17.61869873 -29.37699788  11.94969914 
       68   1   -16.15109883 -27.89629799  13.40039903 
       69   2   -17.60819873 -26.41029810  14.84889893 
       70   1   -16.13859884 -24.93539820  16.29939882 
       71   2   -17.59589873 -23.45509830  17.74889872 
       72   2   -14.67239894 -29.33409788  14.87029893 
       73   1   -13.20429905 -27.85869799  16.31799882 
       74   2   -14.66349894 -26.37949810  17.76489872 
       75   3   -28.01479798 -28.01479798 -4.59206967 
       76   2   -29.52809787 -26.54809808 -3.05985978 
       77   3   -28.04669797 -25.06169819 -1.52850989 
       78   2   -29.54919787 -23.57759830 -0.00288404 
       79   3   -28.05429797 -22.09709840  1.52895989 
       80   2   -29.53469787 -20.60249851  3.05716978 
       81   3   -28.02999798 -19.13329862  4.59577967 
       82   2   -29.48779787 -17.63659873  6.13899955 
       83   1   -27.98709798 -16.17329883  7.58410945 
       84   2   -29.43679787 -14.68629894  9.03881935 
       85   1   -27.94429798 -13.22309905  10.48899924 
       86   2   -29.38479788 -11.74179915  11.95439914 
       87   1   -27.90069799 -10.27679926  13.40339903 
       88   2   -29.33789788 -8.80074936  14.87399892 
       89   1   -27.85939799 -7.33595947  16.32109882 
       90   2   -26.54809808 -29.52809787 -3.05985978 
       91   3   -25.06169819 -28.04669797 -1.52850989 
       92   2   -26.55329808 -26.55329808 -0.00379771 
       93   3   -25.06719819 -25.06719819  1.52950989 
       94   2   -26.54519808 -23.56769830  3.05609978 
       95   3   -25.05489819 -22.08909840  4.59394967 
       96   2   -26.51729809 -20.59199852  6.13374956 
       97   1   -25.02799819 -19.12029862  7.57820945 
       98   2   -26.48449809 -17.63249873  9.02808935 
       99   1   -24.99949819 -16.16479883  10.47949924 
      100   2   -26.44979809 -14.68169894  11.93539914 
      101   1   -24.96909820 -13.21519904  13.38719903 
      102   2   -26.41469809 -11.73719915  14.84969893 
      103   1   -24.93659820 -10.27139926  16.30009883 
      104   2   -26.38129809 -8.79887937  17.76589872 
      105   2   -23.57759830 -29.54919787 -0.00288404 
      106   3   -22.09709840 -28.05429797  1.52895989 
      107   2   -23.56769830 -26.54519808  3.05609978 
      108   3   -22.08909840 -25.05489819  4.59394967 
      109   2   -23.55139830 -23.55139830  6.13183956 
      110   1   -22.07089841 -22.07089841  7.57683945 
      111   2   -23.53099830 -20.57919851  9.02355935 
      112   1   -22.05139841 -19.10659862  10.47539924 
      113   2   -23.50779830 -17.62219873  11.92749914 
      114   1   -22.03069841 -16.15289883  13.37989903 
      115   2   -23.48319830 -14.67329894  14.83639893 
      116   1   -22.00709841 -13.20659905  16.28839882 
      117   2   -23.45679831 -11.73229916  17.74859872 
      118   2   -20.60249851 -29.53469787  3.05716978 
      119   3   -19.13329862 -28.02999798  4.59577967 
      120   2   -20.59199852 -26.51729809  6.13374956 
      121   1   -19.12029862 -25.02799819  7.57820945 
      122   2   -20.57919851 -23.53099830  9.02355935 
      123   1   -19.10659862 -22.05139841  10.47539924 
      124   2   -20.56399852 -20.56399852  11.92409914 
      125   1   -19.09209862 -19.09209862  13.37759903 
      126   2   -20.54739852 -17.61059873  14.83059893 
      127   1   -19.07489862 -16.14049884  16.28289882 
      128   2   -20.52799852 -14.66459894  17.73879872 
      129   2   -17.63659873 -29.48779787  6.13899955 
      130   1   -16.17329883 -27.98709798  7.58410945 
      131   2   -17.63249873 -26.48449809  9.02808935 
      132   1   -16.16479883 -24.99949819  10.47949924 
      133   2   -17.62219873 -23.50779830  11.92749914 
      134   1   -16.15289883 -22.03069841  13.37989903 
      135   2   -17.61059873 -20.54739852  14.83059893 
      136   1   -16.14049884 -19.07489862  16.28289882 
      137   2   -17.59619873 -17.59619873  17.73479872 
      138   2   -14.68629894 -29.43679787  9.03881935 
      139   1   -13.22309905 -27.94429798  10.48899924 
      140   2   -14.68169894 -26.44979809  11.93539914 
      141   1   -13.21519904 -24.96909820  13.38719903 
      142   2   -14.67329894 -23.48319830  14.83639893 
      143   1   -13.20659905 -22.00709841  16.28839882 
      144   2   -14.66459894 -20.52799852  17.73879872 
      145   2   -11.74179915 -29.38479788  11.95439914 
      146   1   -10.27679926 -27.90069799  13.40339903 
      147   2   -11.73719915 -26.41469809  14.84969893 
      148   1   -10.27139926 -24.93659820  16.30009883 
      149   2   -11.73229916 -23.45679831  17.74859872 
      150   2   -8.80074936 -29.33789788  14.87399892 
      151   1   -7.33595947 -27.85939799  16.32109882 
      152   2   -8.79887937 -26.38129809  17.76589872 
      153   1   -27.93929798 -27.93929798 -10.49489924 
      154   2   -29.43999787 -26.49489808 -9.03864935 
      155   1   -27.98279798 -25.02569819 -7.57908945 
      156   2   -29.49169787 -23.57019830 -6.13756956 
      157   3   -28.02779798 -22.08699841 -4.59353967 
      158   2   -29.54209787 -20.62299851 -3.06108978 
      159   3   -28.06189797 -19.13859862 -1.52990989 
      160   2   -29.56519787 -17.66159873 -0.00199489 
      161   3   -28.06679798 -16.18679883  1.53039989 
      162   2   -29.54749787 -14.69929894  3.06099978 
      163   3   -28.03889798 -13.23659904  4.59984967 
      164   2   -29.49849787 -11.74649915  6.14475956 
      165   1   -27.99529798 -10.28689926  7.58945945 
      166   2   -29.44489787 -8.80340937  9.04542935 
      167   1   -27.94969798 -7.34272947  10.49489924 
      168   2   -29.38909788 -5.86340958  11.96049914 
      169   1   -27.90239798 -4.40135968  13.40909903 
      170   2   -29.34069788 -2.92721979  14.87949893 
      171   1   -27.86139799 -1.46367989  16.32599882 
      172   2   -26.49489808 -29.43999787 -9.03864935 
      173   1   -25.02569819 -27.98279798 -7.57908945 
      174   2   -26.52639808 -26.52639808 -6.13622956 
      175   3   -25.05199819 -25.05199819 -4.59363967 
      176   2   -26.55439808 -23.58119830 -3.06317978 
      177   3   -25.07349819 -22.10059840 -1.53194989 
      178   2   -26.56759808 -20.62009851 -0.00379360 
      179   3   -25.07929819 -19.14169862  1.52939989 
      180   2   -26.55899808 -17.65429873  3.05978978 
      181   3   -25.06329819 -16.18469883  4.59801967 
      182   2   -26.52819808 -14.69609894  6.13906955 
      183   1   -25.03579819 -13.23049904  7.58359945 
      184   2   -26.49429809 -11.74769915  9.03263935 
      185   1   -25.00669820 -10.28339926  10.48319924 
      186   2   -26.45619809 -8.80326936  11.94009914 
      187   1   -24.97189820 -7.34015947  13.39109904 
      188   2   -26.41759810 -5.86516958  14.85409893 
      189   1   -24.93849820 -4.40148968  16.30399882 
      190   2   -26.38339810 -2.92927979  17.76969872 
      191   2   -23.57019830 -29.49169787 -6.13756956 
      192   3   -22.08699841 -28.02779798 -4.59353967 
      193   2   -23.58119830 -26.55439808 -3.06317978 
      194   3   -22.10059840 -25.07349819 -1.53194989 
      195   2   -23.58699830 -23.58699830 -0.00473973 
      196   3   -22.10559840 -22.10559840  1.52895989 
      197   2   -23.58079830 -20.61359851  3.05822978 
      198   3   -22.09529841 -19.13679862  4.59620967 
      199   2   -23.56169830 -17.64719873  6.13660956 
      200   1   -22.07709841 -16.17579883  7.58072945 
      201   2   -23.54009830 -14.69239894  9.02796935 
      202   1   -22.05779841 -13.22439904  10.47859924 
      203   2   -23.51549830 -11.74419915  11.92989914 
      204   1   -22.03469841 -10.27889926  13.38139903 
      205   2   -23.48699830 -8.80211937  14.83799893 
      206   1   -22.00899841 -7.33845947  16.28979882 
      207   2   -23.45969830 -5.86570958  17.74979872 
      208   2   -20.62299851 -29.54209787 -3.06108978 
      209   3   -19.13859862 -28.06189797 -1.52990989 
      210   2   -20.62009851 -26.56759808 -0.00379360 
      211   3   -19.14169862 -25.07929819  1.52939989 
      212   2   -20.61359851 -23.58079830  3.05822978 
      213   3   -19.13679862 -22.09529841  4.59620967 
      214   2   -20.60069851 -20.60069851  6.13565956 
      215   1   -19.12369862 -19.12369862  7.57917945 
      216   2   -20.58649851 -17.63849873  9.02558935 
      217   1   -19.11089862 -16.16649883  10.47589924 
      218   2   -20.57049852 -14.68559894  11.92559914 
      219   1   -19.09539862 -13.21759905  13.37759903 
      220   2   -20.55149851 -11.73999915  14.83039893 
      221   1   -19.07609862 -10.27359926  16.28349883 
      222   2   -20.53119852 -8.80032937  17.73849872 
      223   2   -17.66159873 -29.56519787 -0.00199489 
      224   3   -16.18679883 -28.06679798  1.53039989 
      225   2   -17.65429873 -26.55899808  3.05978978 
      226   3   -16.18469883 -25.06329819  4.59801967 
      227   2   -17.64719873 -23.56169830  6.13660956 
      228   1   -16.17579883 -22.07709841  7.58072945 
      229   2   -17.63849873 -20.58649851  9.02558935 
      230   1   -16.16649883 -19.11089862  10.47589924 
      231   2   -17.62729873 -17.62729873  11.92459914 
      232   1   -16.15549883 -16.15549883  13.37639903 
      233   2   -17.61389873 -14.67669894  14.82749893 
      234   1   -16.14139883 -13.20769905  16.28039882 
      235   2   -17.59719873 -11.73289915  17.73409872 
      236   2   -14.69929894 -29.54749787  3.06099978 
      237   3   -13.23659904 -28.03889798  4.59984967 
      238   2   -14.69609894 -26.52819808  6.13906955 
      239   1   -13.23049904 -25.03579819  7.58359945 
      240   2   -14.69239894 -23.54009830  9.02796935 
      241   1   -13.22439904 -22.05779841  10.47859924 
      242   2   -14.68559894 -20.57049852  11.92559914 
      243   1   -13.21759905 -19.09539862  13.37759903 
      244   2   -14.67669894 -17.61389873  14.82749893 
      245   1   -13.20769905 -16.14139883  16.28039882 
      246   2   -14.66479894 -14.66479894  17.73259872 
      247   2   -11.74649915 -29.49849787  6.14475956 
      248   1   -10.28689926 -27.99529798  7.58945945 
      249   2   -11.74769915 -26.49429809  9.03263935 
      250   1   -10.28339926 -25.00669820  10.48319924 
      251   2   -11.74419915 -23.51549830  11.92989914 
      252   1   -10.27889926 -22.03469841  13.38139903 
      253   2   -11.73999915 -20.55149851  14.83039893 
      254   1   -10.27359926 -19.07609862  16.28349883 
      255   2   -11.73289915 -17.59719873  17.73409872 
      256   2   -8.80340937 -29.44489787  9.04542935 
      257   1   -7.34272947 -27.94969798  10.49489924 
      258   2   -8.80326936 -26.45619809  11.94009914 
      259   1   -7.34015947 -24.97189820  13.39109904 
      260   2   -8.80211937 -23.48699830  14.83799893 
      261   1   -7.33845947 -22.00899841  16.28979882 
      262   2   -8.80032937 -20.53119852  17.73849872 
      263   2   -5.86340958 -29.38909788  11.96049914 
      264   1   -4.40135968 -27.90239798  13.40909903 
      265   2   -5.86516958 -26.41759810  14.85409893 
      266   1   -4.40148968 -24.93849820  16.30399882 
      267   2   -5.86570958 -23.45969830  17.74979872 
      268   2   -2.92721979 -29.34069788  14.87949893 
      269   1   -1.46367989 -27.86139799  16.32599882 
      270   2   -2.92927979 -26.38339810  17.76969872 
      271   1   -27.86579799 -27.86579799 -16.35339882 
      272   2   -29.34649788 -26.42469809 -14.88999893 
      273   1   -27.90069799 -24.97119820 -13.40889903 
      274   2   -29.39119788 -23.52319830 -11.95339914 
      275   1   -27.94379798 -22.05599841 -10.48529924 
      276   2   -29.44489787 -20.60279851 -9.03635935 
      277   1   -27.99159798 -19.12519862 -7.58158945 
      278   2   -29.50049787 -17.66749872 -6.14133956 
      279   3   -28.03909798 -16.18159883 -4.59806967 
      280   2   -29.55249787 -14.71909894 -3.06415978 
      281   3   -28.07259798 -13.23619904 -1.53171989 
      282   2   -29.57489787 -11.76339915 -0.00075776 
      283   3   -28.07469797 -10.29199925  1.53284989 
      284   2   -29.55529787 -8.80936936  3.06590978 
      285   3   -28.04519797 -7.34877947  4.60453967 
      286   2   -29.50499787 -5.86183958  6.15051956 
      287   1   -27.99909798 -4.40492968  7.59518945 
      288   2   -29.44829787 -2.92280979  9.05061935 
      289   1   -27.95079798 -1.46462989  10.49889924 
      290   2   -29.39169788  0.01269510  11.96379914 
      291   1   -27.90389798  1.47286990  13.41169903 
      292   2   -29.34309788  2.94614979  14.88119893 
      293   1   -27.86179799  4.40829968  16.32579882 
      294   2   -26.42469809 -29.34649788 -14.88999893 
      295   1   -24.97119820 -27.90069799 -13.40889903 
      296   2   -26.45909809 -26.45909809 -11.94529914 
      297   1   -25.00069819 -25.00069819 -10.48009924 
      298   2   -26.49559809 -23.54739830 -9.02861935 
      299   1   -25.03169819 -22.07539841 -7.57796945 
      300   2   -26.53199809 -20.61409851 -6.13784956 
      301   3   -25.06209819 -19.13419862 -4.59758967 
      302   2   -26.56479808 -17.66669872 -3.06513978 
      303   3   -25.08479819 -16.18659883 -1.53312989 
      304   2   -26.57919808 -14.71189894 -0.00227557 
      305   3   -25.08839819 -13.23889904  1.53212989 
      306   2   -26.56819808 -11.75729915  3.06421978 
      307   3   -25.07029819 -10.29239925  4.60266967 
      308   2   -26.53669808 -8.80869937  6.14440956 
      309   1   -25.04239819 -7.34554947  7.58866945 
      310   2   -26.49969809 -5.86606958  9.03960935 
      311   1   -25.00929820 -4.40460968  10.48979924 
      312   2   -26.45879809 -2.92615979  11.94589914 
      313   1   -24.97329820 -1.46512990  13.39679903 
      314   2   -26.42029809  0.00879293  14.85869893 
      315   1   -24.93929820  1.47098989  16.30729882 
      316   2   -26.38489810  2.94169979  17.77169872 
      317   2   -23.52319830 -29.39119788 -11.95339914 
      318   1   -22.05599841 -27.94379798 -10.48529924 
      319   2   -23.54739830 -26.49559809 -9.02861935 
      320   1   -22.07539841 -25.03169819 -7.57796945 
      321   2   -23.56789830 -23.56789830 -6.13732956 
      322   3   -22.09309841 -22.09309841 -4.59740967 
      323   2   -23.58699830 -20.62169851 -3.06587978 
      324   3   -22.10899840 -19.14329862 -1.53284989 
      325   2   -23.59729830 -17.66489873 -0.00343130 
      326   3   -22.11329840 -16.18949883  1.53098989 
      327   2   -23.59059830 -14.70749894  3.06300978 
      328   3   -22.10169840 -13.23749904  4.60085967 
      329   2   -23.57059830 -11.75529915  6.14225956 
      330   1   -22.08389841 -10.28849926  7.58611945 
      331   2   -23.54789830 -8.80851936  9.03263935 
      332   1   -22.06339841 -7.34362947  10.48369925 
      333   2   -23.51969830 -5.86620958  11.93609914 
      334   1   -22.03719841 -4.40332968  13.38739903 
      335   2   -23.48989830 -2.92882979  14.84409893 
      336   1   -22.01079841 -1.46725989  16.29589883 
      337   2   -23.46149831  0.00520706  17.75489872 
      338   2   -20.60279851 -29.44489787 -9.03635935 
      339   1   -19.12519862 -27.99159798 -7.58158945 
      340   2   -20.61409851 -26.53199809 -6.13784956 
      341   3   -19.13419862 -25.06209819 -4.59758967 
      342   2   -20.62169851 -23.58699830 -3.06587978 
      343   3   -19.14329862 -22.10899840 -1.53284989 
      344   2   -20.62699851 -20.62699851 -0.00388258 
      345   3   -19.14719862 -19.14719862  1.52920989 
      346   2   -20.62179851 -17.66149873  3.06099978 
      347   3   -19.14049862 -16.18629883  4.59922967 
      348   2   -20.60839851 -14.70229894  6.14061956 
      349   1   -19.12889862 -13.23149905  7.58402945 
      350   2   -20.59439851 -11.75259915  9.03025935 
      351   1   -19.11649862 -10.28419926  10.48029924 
      352   2   -20.57699852 -8.80675937  11.92969914 
      353   1   -19.09939862 -7.34194947  13.38209903 
      354   2   -20.55559852 -5.86710957  14.83499893 
      355   1   -19.07899862 -4.40414968  16.28789882 
      356   2   -20.53389852 -2.93188979  17.74349872 
      357   2   -17.66749872 -29.50049787 -6.14133956 
      358   3   -16.18159883 -28.03909798 -4.59806967 
      359   2   -17.66669872 -26.56479808 -3.06513978 
      360   3   -16.18659883 -25.08479819 -1.53312989 
      361   2   -17.66489873 -23.59729830 -0.00343130 
      362   3   -16.18949883 -22.11329840  1.53098989 
      363   2   -17.66149873 -20.62179851  3.06099978 
      364   3   -16.18629883 -19.14049862  4.59922967 
      365   2   -17.65329872 -17.65329872  6.13952956 
      366   1   -16.17839883 -16.17839883  7.58273945 
      367   2   -17.64469873 -14.69729894  9.02848935 
      368   1   -16.17019883 -13.22629904  10.47799924 
      369   2   -17.63289873 -11.74829915  11.92699914 
      370   1   -16.15909883 -10.27989926  13.37909903 
      371   2   -17.61819873 -8.80430937  14.83019893 
      372   1   -16.14329883 -7.33983947  16.28269882 
      373   2   -17.60119873 -5.86719958  17.73549872 
      374   2   -14.71909894 -29.55249787 -3.06415978 
      375   3   -13.23619904 -28.07259798 -1.53171989 
      376   2   -14.71189894 -26.57919808 -0.00227557 
      377   3   -13.23889904 -25.08839819  1.53212989 
      378   2   -14.70749894 -23.59059830  3.06300978 
      379   3   -13.23749904 -22.10169840  4.60085967 
      380   2   -14.70229894 -20.60839851  6.14061956 
      381   1   -13.23149905 -19.12889862  7.58402945 
      382   2   -14.69729894 -17.64469873  9.02848935 
      383   1   -13.22629904 -16.17019883  10.47799924 
      384   2   -14.69009894 -14.69009894  11.92559914 
      385   1   -13.21949905 -13.21949905  13.37729904 
      386   2   -14.67999894 -11.74229915  14.82729893 
      387   1   -13.20819905 -10.27349926  16.27919882 
      388   2   -14.66709894 -8.80073937  17.73239872 
      389   2   -11.76339915 -29.57489787 -0.00075776 
      390   3   -10.29199925 -28.07469797  1.53284989 
      391   2   -11.75729915 -26.56819808  3.06421978 
      392   3   -10.29239925 -25.07029819  4.60266967 
      393   2   -11.75529915 -23.57059830  6.14225956 
      394   1   -10.28849926 -22.08389841  7.58611945 
      395   2   -11.75259915 -20.59439851  9.03025935 
      396   1   -10.28419926 -19.11649862  10.48029924 
      397   2   -11.74829915 -17.63289873  11.92699914 
      398   1   -10.27989926 -16.15909883  13.37909903 
      399   2   -11.74229915 -14.67999894  14.82729893 
      400   1   -10.27349926 -13.20819905  16.27919882 
      401   2   -11.73329915 -11.73329915  17.73079872 
      402   2   -8.80936936 -29.55529787  3.06590978 
      403   3   -7.34877947 -28.04519797  4.60453967 
      404   2   -8.80869937 -26.53669808  6.14440956 
      405   1   -7.34554947 -25.04239819  7.58866945 
      406   2   -8.80851936 -23.54789830  9.03263935 
      407   1   -7.34362947 -22.06339841  10.48369925 
      408   2   -8.80675937 -20.57699852  11.92969914 
      409   1   -7.34194947 -19.09939862  13.38209903 
      410   2   -8.80430937 -17.61819873  14.83019893 
      411   1   -7.33983947 -16.14329883  16.28269882 
      412   2   -8.80073937 -14.66709894  17.73239872 
      413   2   -5.86183958 -29.50499787  6.15051956 
      414   1   -4.40492968 -27.99909798  7.59518945 
      415   2   -5.86606958 -26.49969809  9.03960935 
      416   1   -4.40460968 -25.00929820  10.48979924 
      417   2   -5.86620958 -23.51969830  11.93609914 
      418   1   -4.40332968 -22.03719841  13.38739903 
      419   2   -5.86710957 -20.55559852  14.83499893 
      420   1   -4.40414968 -19.07899862  16.28789882 
      421   2   -5.86719958 -17.60119873  17.73549872 
      422   2   -2.92280979 -29.44829787  9.05061935 
      423   1   -1.46462989 -27.95079798  10.49889924 
      424   2   -2.92615979 -26.45879809  11.94589914 
      425   1   -1.46512990 -24.97329820  13.39679903 
      426   2   -2.92882979 -23.48989830  14.84409893 
      427   1   -1.46725989 -22.01079841  16.29589883 
      428   2   -2.93188979 -20.53389852  17.74349872 
      429   2    0.01269510 -29.39169788  11.96379914 
      430   1    1.47286990 -27.90389798  13.41169903 
      431   2    0.00879293 -26.42029809  14.85869893 
      432   1    1.47098989 -24.93929820  16.30729882 
      433   2    0.00520706 -23.46149831  17.75489872 
      434   2    2.94614979 -29.34309788  14.88119893 
      435   1    4.40829968 -27.86179799  16.32579882 
      436   2    2.94169979 -26.38489810  17.77169872 
      437   1   -27.86439799 -22.01449841 -16.32549882 
      438   2   -29.34649788 -20.56329852 -14.87339893 
      439   1   -27.90229799 -19.09939862 -13.40119903 
      440   2   -29.39309788 -17.64409873 -11.95249914 
      441   1   -27.94869798 -16.17119883 -10.48809924 
      442   2   -29.44869787 -14.71449894 -9.04184935 
      443   1   -27.99759798 -13.23359904 -7.58789945 
      444   2   -29.50539787 -11.77599915 -6.14722956 
      445   3   -28.04529798 -10.28959926 -4.60283967 
      446   2   -29.55839787 -8.82976936 -3.06662978 
      447   3   -28.07889797 -7.34747947 -1.53340989 
      448   2   -29.58099787 -5.87753958 -0.00025650 
      449   3   -28.07939797 -4.40767968  1.53352989 
      450   2   -29.55959787 -2.92654979  3.06819978 
      451   3   -28.04749797 -1.46915989  4.60760967 
      452   2   -29.50649787  0.01726130  6.15302956 
      453   1   -27.99919798  1.47269989  7.59664945 
      454   2   -29.44909787  2.95367979  9.05152935 
      455   1   -27.95059798  4.41082968  10.49869924 
      456   2   -29.39269788  5.88760958  11.96259914 
      457   1   -27.90369799  7.34723947  13.40859903 
      458   2   -29.34459788  8.81865937  14.87769893 
      459   1   -27.86299799  10.27899926  16.32259882 
      460   2   -26.39249809 -26.39249809 -17.79659872 
      461   1   -24.94159820 -24.94159820 -16.31819882 
      462   2   -26.42449810 -23.49529830 -14.85819893 
      463   1   -24.97109820 -22.03479841 -13.38959904 
      464   2   -26.46039809 -20.58249851 -11.93639914 
      465   1   -25.00499819 -19.11339862 -10.47909925 
      466   2   -26.49949808 -17.65549872 -9.03114935 
      467   1   -25.03869819 -16.17889883 -7.58184945 
      468   2   -26.53809809 -14.71619894 -6.14236956 
      469   3   -25.07079819 -13.23449905 -4.60116967 
      470   2   -26.57239808 -11.76929915 -3.06666978 
      471   3   -25.09329819 -10.29049926 -1.53344989 
      472   2   -26.58669808 -8.81864936 -0.00060017 
      473   3   -25.09459819 -7.34843947  1.53437989 
      474   2   -26.57409808 -5.87007958  3.06808978 
      475   3   -25.07469819 -4.40789968  4.60700967 
      476   2   -26.53999809 -2.92687979  6.15020955 
      477   1   -25.04309819 -1.46638989  7.59337945 
      478   2   -26.50069809  0.01224040  9.04296935 
      479   1   -25.00879819  1.47197989  10.49149924 
      480   2   -26.46019809  2.94811979  11.94679914 
      481   1   -24.97339820  4.40834968  13.39549903 
      482   2   -26.42169809  5.88142957  14.85629893 
      483   1   -24.93949820  7.34194947  16.30389883 
      484   2   -26.38699809  8.81070936  17.76829872 
      485   1   -22.01449841 -27.86439799 -16.32549882 
      486   2   -23.49529830 -26.42449810 -14.85819893 
      487   1   -22.03479841 -24.97109820 -13.38959904 
      488   2   -23.52239830 -23.52239830 -11.93159914 
      489   1   -22.05749841 -22.05749841 -10.47689924 
      490   2   -23.54829830 -20.59909851 -9.02748935 
      491   1   -22.07999841 -19.12699862 -7.58082945 
      492   2   -23.57239830 -17.66179873 -6.14141956 
      493   3   -22.10149841 -16.18429883 -4.60074967 
      494   2   -23.59499830 -14.71489894 -3.06761978 
      495   3   -22.11789840 -13.23799905 -1.53332989 
      496   2   -23.60609830 -11.76409915 -0.00118736 
      497   3   -22.12019840 -10.29229926  1.53389989 
      498   2   -23.59839830 -8.81492936  3.06705978 
      499   3   -22.10819840 -7.34821947  4.60528967 
      500   2   -23.57689830 -5.86994958  6.14811955 
      501   1   -22.08819841 -4.40617968  7.59262945 
      502   2   -23.55079830 -2.92852979  9.04005935 
      503   1   -22.06359841 -1.46594989  10.48929924 
      504   2   -23.52129830  0.00945985  11.94009914 
      505   1   -22.03749841  1.47015989  13.39079903 
      506   2   -23.49169831  2.94403979  14.84499893 
      507   1   -22.01019841  4.40516968  16.29379882 
      508   2   -23.46259831  5.87489958  17.75169872 
      509   2   -20.56329852 -29.34649788 -14.87339893 
      510   1   -19.09939862 -27.90229799 -13.40119903 
      511   2   -20.58249851 -26.46039809 -11.93639914 
      512   1   -19.11339862 -25.00499819 -10.47909925 
      513   2   -20.59909851 -23.54829830 -9.02748935 
      514   1   -19.12699862 -22.07999841 -7.58082945 
      515   2   -20.61359851 -20.61359851 -6.14102956 
      516   3   -19.13939862 -19.13939862 -4.60079967 
      517   2   -20.62619851 -17.66659872 -3.06759978 
      518   3   -19.14949862 -16.18989883 -1.53350989 
      519   2   -20.63389851 -14.71399894 -0.00201146 
      520   3   -19.15199862 -13.23969904  1.53240989 
      521   2   -20.62909851 -11.76149915  3.06564978 
      522   3   -19.14589862 -10.29109926  4.60379967 
      523   2   -20.61679851 -8.81354937  6.14573956 
      524   1   -19.13559862 -7.34589947  7.58996945 
      525   2   -20.60049851 -5.87026958  9.03709935 
      526   1   -19.12009862 -4.40586968  10.48739924 
      527   2   -20.57949851 -2.93011979  11.93649914 
      528   1   -19.09989862 -1.46805989  13.38899903 
      529   2   -20.55759851  0.00550668  14.84079893 
      530   1   -19.07899862  1.46832989  16.29129883 
      531   2   -20.53469852  2.93971979  17.74429872 
      532   2   -17.64409873 -29.39309788 -11.95249914 
      533   1   -16.17119883 -27.94869798 -10.48809924 
      534   2   -17.65549872 -26.49949808 -9.03114935 
      535   1   -16.17889883 -25.03869819 -7.58184945 
      536   2   -17.66179873 -23.57239830 -6.14141956 
      537   3   -16.18429883 -22.10149841 -4.60074967 
      538   2   -17.66659872 -20.62619851 -3.06759978 