LAMMPS configuration data file

  2162 atoms

  4 atom types

  -50.279798  50.279798  xlo xhi
  -50.279798  50.279798  ylo yhi
  -26.046590  26.046590  zlo zhi

 Masses

  1   112.411
  2   78.960
  3   1.000
  4   1.000

 Atoms

        1   1   -30.27959781 -27.25619803  3.02303978 
        2   2   -28.76829792 -25.74419814  4.53510967 
        3   1   -27.25619803 -30.27959781  3.02303978 
        4   2   -25.74419814 -28.76829792  4.53510967 
        5   1   -27.25619803 -27.25619803  6.04640956 
        6   2   -28.76849792 -28.76849792 -4.53533968 
        7   1   -30.27979781 -27.25639804 -3.02320978 
        8   1   -30.27969782 -21.20399847  3.02333978 
        9   2   -28.76829792 -19.68939858  4.53508967 
       10   1   -27.25639804 -30.27979781 -3.02320978 
       11   1   -27.25629803 -24.23219825  3.02310978 
       12   2   -25.74429814 -22.71849836  4.53494967 
       13   1   -27.25649803 -21.20399847  6.04651956 
       14   1   -24.23219825 -27.25629803  3.02310978 
       15   2   -22.71849836 -25.74429814  4.53494967 
       16   1   -24.23219825 -24.23219825  6.04637956 
       17   1   -21.20399847 -30.27969782  3.02333978 
       18   2   -19.68939858 -28.76829792  4.53508967 
       19   1   -21.20399847 -27.25649803  6.04651956 
       20   2   -28.76829792 -22.71859836 -4.53509967 
       21   1   -30.27969782 -21.20399847 -3.02332978 
       22   1   -30.27969782 -15.14579891  3.02332978 
       23   2   -28.76829792 -13.63109901  4.53508967 
       24   1   -27.25639804 -27.25639804 -6.04658957 
       25   2   -25.74439814 -25.74439814 -4.53501967 
       26   1   -27.25629803 -24.23219825 -3.02312978 
       27   1   -27.25639804 -18.17489869  3.02316978 
       28   2   -25.74429814 -16.66029880  4.53493967 
       29   1   -27.25649803 -15.14579891  6.04651956 
       30   2   -22.71859836 -28.76829792 -4.53509967 
       31   1   -24.23219825 -27.25629803 -3.02312978 
       32   1   -24.23229825 -21.20399847  3.02321978 
       33   2   -22.71849836 -19.68949858  4.53487967 
       34   1   -24.23219825 -18.17489869  6.04642956 
       35   1   -21.20399847 -30.27969782 -3.02332978 
       36   1   -21.20399847 -24.23229825  3.02321978 
       37   2   -19.68949858 -22.71849836  4.53487967 
       38   1   -21.20399847 -21.20399847  6.04646956 
       39   1   -18.17489869 -27.25639804  3.02316978 
       40   2   -16.66029880 -25.74429814  4.53493967 
       41   1   -18.17489869 -24.23219825  6.04642956 
       42   1   -15.14579891 -30.27969782  3.02332978 
       43   2   -13.63109901 -28.76829792  4.53508967 
       44   1   -15.14579891 -27.25649803  6.04651956 
       45   2   -28.76829792 -16.66039880 -4.53508967 
       46   1   -30.27969782 -15.14569891 -3.02332978 
       47   1   -30.27969782 -9.08745934  3.02332978 
       48   2   -28.76829792 -7.57275945  4.53508967 
       49   1   -27.25649803 -21.20399847 -6.04651956 
       50   2   -25.74429814 -19.68949858 -4.53493967 
       51   1   -27.25639804 -18.17489869 -3.02316978 
       52   1   -27.25639804 -12.11659912  3.02316978 
       53   2   -25.74429814 -10.60199923  4.53493967 
       54   1   -27.25649803 -9.08745934  6.04651956 
       55   1   -24.23229825 -24.23229825 -6.04637956 
       56   2   -22.71849836 -22.71849836 -4.53488967 
       57   1   -24.23229825 -21.20409847 -3.02321978 
       58   1   -24.23229825 -15.14569891  3.02321978 
       59   2   -22.71849836 -13.63119902  4.53487967 
       60   1   -24.23219825 -12.11659912  6.04642956 
       61   1   -21.20399847 -27.25649803 -6.04651956 
       62   2   -19.68949858 -25.74429814 -4.53493967 
       63   1   -21.20409847 -24.23229825 -3.02321978 
       64   1   -21.20399847 -18.17489869  3.02327978 
       65   2   -19.68949858 -16.66029880  4.53486967 
       66   1   -21.20399847 -15.14579891  6.04647957 
       67   2   -16.66039880 -28.76829792 -4.53508967 
       68   1   -18.17489869 -27.25639804 -3.02316978 
       69   1   -18.17489869 -21.20399847  3.02327978 
       70   2   -16.66029880 -19.68949858  4.53486967 
       71   1   -18.17489869 -18.17489869  6.04647957 
       72   1   -15.14569891 -30.27969782 -3.02332978 
       73   1   -15.14569891 -24.23229825  3.02321978 
       74   2   -13.63119902 -22.71849836  4.53487967 
       75   1   -15.14579891 -21.20399847  6.04647957 
       76   1   -12.11659912 -27.25639804  3.02316978 
       77   2   -10.60199923 -25.74429814  4.53493967 
       78   1   -12.11659912 -24.23219825  6.04642956 
       79   1   -9.08745934 -30.27969782  3.02332978 
       80   2   -7.57275945 -28.76829792  4.53508967 
       81   1   -9.08745934 -27.25649803  6.04651956 
       82   2   -28.76829792 -10.60209923 -4.53508967 
       83   1   -30.27969782 -9.08743935 -3.02332978 
       84   1   -30.27969782 -3.02915978  3.02332978 
       85   2   -28.76829792 -1.51445989  4.53508967 
       86   1   -27.25649803 -15.14569891 -6.04651956 
       87   2   -25.74429814 -13.63119902 -4.53493967 
       88   1   -27.25639804 -12.11659912 -3.02316978 
       89   1   -27.25639804 -6.05827956  3.02316978 
       90   2   -25.74429814 -4.54369967  4.53493967 
       91   1   -27.25649803 -3.02915978  6.04651956 
       92   1   -24.23219825 -18.17489869 -6.04642956 
       93   2   -22.71849836 -16.66029880 -4.53487967 
       94   1   -24.23229825 -15.14579891 -3.02321978 
       95   1   -24.23229825 -9.08742934  3.02321978 
       96   2   -22.71849836 -7.57286945  4.53487967 
       97   1   -24.23219825 -6.05826956  6.04642956 
       98   1   -21.20399847 -21.20399847 -6.04646956 
       99   2   -19.68949858 -19.68949858 -4.53486967 
      100   1   -21.20399847 -18.17489869 -3.02327978 
      101   1   -21.20399847 -12.11659912  3.02327978 
      102   2   -19.68949858 -10.60199923  4.53486967 
      103   1   -21.20399847 -9.08744934  6.04647957 
      104   1   -18.17489869 -24.23219825 -6.04642956 
      105   2   -16.66029880 -22.71849836 -4.53487967 
      106   1   -18.17489869 -21.20399847 -3.02327978 
      107   1   -18.17489869 -15.14569891  3.02327978 
      108   2   -16.66029880 -13.63119902  4.53486967 
      109   1   -18.17489869 -12.11659912  6.04647957 
      110   1   -15.14569891 -27.25649803 -6.04651956 
      111   2   -13.63119902 -25.74429814 -4.53493967 
      112   1   -15.14579891 -24.23229825 -3.02321978 
      113   1   -15.14569891 -18.17489869  3.02327978 
      114   2   -13.63119902 -16.66029880  4.53486967 
      115   1   -15.14579891 -15.14579891  6.04647957 
      116   2   -10.60209923 -28.76829792 -4.53508967 
      117   1   -12.11659912 -27.25639804 -3.02316978 
      118   1   -12.11659912 -21.20399847  3.02327978 
      119   2   -10.60199923 -19.68949858  4.53486967 
      120   1   -12.11659912 -18.17489869  6.04647957 
      121   1   -9.08743935 -30.27969782 -3.02332978 
      122   1   -9.08742934 -24.23229825  3.02321978 
      123   2   -7.57286945 -22.71849836  4.53487967 
      124   1   -9.08744934 -21.20399847  6.04647957 
      125   1   -6.05827956 -27.25639804  3.02316978 
      126   2   -4.54369967 -25.74429814  4.53493967 
      127   1   -6.05826956 -24.23219825  6.04642956 
      128   1   -3.02915978 -30.27969782  3.02332978 
      129   2   -1.51445989 -28.76829792  4.53508967 
      130   1   -3.02915978 -27.25649803  6.04651956 
      131   2   -28.76829792 -4.54383967 -4.53508967 
      132   1   -30.27969782 -3.02913978 -3.02332978 
      133   1   -30.27969782  3.02913978  3.02332978 
      134   2   -28.76829792  4.54383967  4.53508967 
      135   1   -27.25649803 -9.08743935 -6.04651956 
      136   2   -25.74429814 -7.57289945 -4.53493967 
      137   1   -27.25639804 -6.05831956 -3.02316978 
      138   1   -27.25639804  0.00001612  3.02316978 
      139   2   -25.74429814  1.51459989  4.53493967 
      140   1   -27.25649803  3.02913978  6.04651956 
      141   1   -24.23219825 -12.11659912 -6.04642956 
      142   2   -22.71849836 -10.60199923 -4.53487967 
      143   1   -24.23229825 -9.08746934 -3.02321978 
      144   1   -24.23229825 -3.02912978  3.02321978 
      145   2   -22.71849836 -1.51456989  4.53487967 
      146   1   -24.23219825  0.00002609  6.04642956 
      147   1   -21.20399847 -15.14569891 -6.04647957 
      148   2   -19.68949858 -13.63119902 -4.53486967 
      149   1   -21.20399847 -12.11659912 -3.02327978 
      150   1   -21.20399847 -6.05829956  3.02327978 
      151   2   -19.68949858 -4.54372967  4.53486967 
      152   1   -21.20399847 -3.02914978  6.04647957 
      153   1   -18.17489869 -18.17489869 -6.04647957 
      154   2   -16.66029880 -16.66029880 -4.53486967 
      155   1   -18.17489869 -15.14579891 -3.02327978 
      156   1   -18.17489869 -9.08744934  3.02327978 
      157   2   -16.66029880 -7.57287945  4.53486967 
      158   1   -18.17489869 -6.05829956  6.04647957 
      159   1   -15.14569891 -21.20399847 -6.04647957 
      160   2   -13.63119902 -19.68949858 -4.53486967 
      161   1   -15.14579891 -18.17489869 -3.02327978 
      162   1   -15.14569891 -12.11659912  3.02327978 
      163   2   -13.63119902 -10.60199923  4.53486967 
      164   1   -15.14579891 -9.08744934  6.04647957 
      165   1   -12.11659912 -24.23219825 -6.04642956 
      166   2   -10.60199923 -22.71849836 -4.53487967 
      167   1   -12.11659912 -21.20399847 -3.02327978 
      168   1   -12.11659912 -15.14569891  3.02327978 
      169   2   -10.60199923 -13.63119902  4.53486967 
      170   1   -12.11659912 -12.11659912  6.04647957 
      171   1   -9.08743935 -27.25649803 -6.04651956 
      172   2   -7.57289945 -25.74429814 -4.53493967 
      173   1   -9.08746934 -24.23229825 -3.02321978 
      174   1   -9.08744934 -18.17489869  3.02327978 
      175   2   -7.57287945 -16.66029880  4.53486967 
      176   1   -9.08744934 -15.14579891  6.04647957 
      177   2   -4.54383967 -28.76829792 -4.53508967 
      178   1   -6.05831956 -27.25639804 -3.02316978 
      179   1   -6.05829956 -21.20399847  3.02327978 
      180   2   -4.54372967 -19.68949858  4.53486967 
      181   1   -6.05829956 -18.17489869  6.04647957 
      182   1   -3.02913978 -30.27969782 -3.02332978 
      183   1   -3.02912978 -24.23229825  3.02321978 
      184   2   -1.51456989 -22.71849836  4.53487967 
      185   1   -3.02914978 -21.20399847  6.04647957 
      186   1    0.00001612 -27.25639804  3.02316978 
      187   2    1.51459989 -25.74429814  4.53493967 
      188   1    0.00002609 -24.23219825  6.04642956 
      189   1    3.02913978 -30.27969782  3.02332978 
      190   2    4.54383967 -28.76829792  4.53508967 
      191   1    3.02913978 -27.25649803  6.04651956 
      192   2   -28.76829792  1.51445989 -4.53508967 
      193   1   -30.27969782  3.02915978 -3.02332978 
      194   1   -30.27969782  9.08743935  3.02332978 
      195   2   -28.76829792  10.60209923  4.53508967 
      196   1   -27.25649803 -3.02913978 -6.04651956 
      197   2   -25.74429814 -1.51459989 -4.53493967 
      198   1   -27.25639804 -0.00001612 -3.02316978 
      199   1   -27.25639804  6.05831956  3.02316978 
      200   2   -25.74429814  7.57289945  4.53493967 
      201   1   -27.25649803  9.08743935  6.04651956 
      202   1   -24.23219825 -6.05832956 -6.04642956 
      203   2   -22.71849836 -4.54372967 -4.53487967 
      204   1   -24.23229825 -3.02916978 -3.02321978 
      205   1   -24.23229825  3.02916978  3.02321978 
      206   2   -22.71849836  4.54372967  4.53487967 
      207   1   -24.23219825  6.05832956  6.04642956 
      208   1   -21.20399847 -9.08744934 -6.04647957 
      209   2   -19.68949858 -7.57286945 -4.53486967 
      210   1   -21.20399847 -6.05829956 -3.02327978 
      211   1   -21.20399847 -0.00000202  3.02327978 
      212   2   -19.68949858  1.51456989  4.53486967 
      213   1   -21.20399847  3.02914978  6.04647957 
      214   1   -18.17489869 -12.11659912 -6.04647957 
      215   2   -16.66029880 -10.60199923 -4.53486967 
      216   1   -18.17489869 -9.08744934 -3.02327978 
      217   1   -18.17489869 -3.02914978  3.02327978 
      218   2   -16.66029880 -1.51457989  4.53486967 
      219   1   -18.17489869 -0.00000016  6.04647957 
      220   1   -15.14569891 -15.14569891 -6.04647957 
      221   2   -13.63119902 -13.63119902 -4.53486967 
      222   1   -15.14569891 -12.11659912 -3.02327978 
      223   1   -15.14569891 -6.05829956  3.02327978 
      224   2   -13.63119902 -4.54372967  4.53486967 
      225   1   -15.14579891 -3.02914978  6.04647957 
      226   1   -12.11659912 -18.17489869 -6.04647957 
      227   2   -10.60199923 -16.66029880 -4.53486967 
      228   1   -12.11659912 -15.14569891 -3.02327978 
      229   1   -12.11659912 -9.08744934  3.02327978 
      230   2   -10.60199923 -7.57286945  4.53486967 
      231   1   -12.11659912 -6.05829956  6.04647957 
      232   1   -9.08744934 -21.20399847 -6.04647957 
      233   2   -7.57286945 -19.68949858 -4.53486967 
      234   1   -9.08744934 -18.17489869 -3.02327978 
      235   1   -9.08744934 -12.11659912  3.02327978 
      236   2   -7.57286945 -10.60199923  4.53486967 
      237   1   -9.08744934 -9.08744934  6.04647957 
      238   1   -6.05832956 -24.23219825 -6.04642956 
      239   2   -4.54372967 -22.71849836 -4.53487967 
      240   1   -6.05829956 -21.20399847 -3.02327978 
      241   1   -6.05829956 -15.14569891  3.02327978 
      242   2   -4.54372967 -13.63119902  4.53486967 
      243   1   -6.05829956 -12.11659912  6.04647957 
      244   1   -3.02913978 -27.25649803 -6.04651956 
      245   2   -1.51459989 -25.74429814 -4.53493967 
      246   1   -3.02916978 -24.23229825 -3.02321978 
      247   1   -3.02914978 -18.17489869  3.02327978 
      248   2   -1.51457989 -16.66029880  4.53486967 
      249   1   -3.02914978 -15.14579891  6.04647957 
      250   2    1.51445989 -28.76829792 -4.53508967 
      251   1   -0.00001612 -27.25639804 -3.02316978 
      252   1   -0.00000202 -21.20399847  3.02327978 
      253   2    1.51456989 -19.68949858  4.53486967 
      254   1   -0.00000016 -18.17489869  6.04647957 
      255   1    3.02915978 -30.27969782 -3.02332978 
      256   1    3.02916978 -24.23229825  3.02321978 
      257   2    4.54372967 -22.71849836  4.53487967 
      258   1    3.02914978 -21.20399847  6.04647957 
      259   1    6.05831956 -27.25639804  3.02316978 
      260   2    7.57289945 -25.74429814  4.53493967 
      261   1    6.05832956 -24.23219825  6.04642956 
      262   1    9.08743935 -30.27969782  3.02332978 
      263   2    10.60209923 -28.76829792  4.53508967 
      264   1    9.08743935 -27.25649803  6.04651956 
      265   2   -28.76829792  7.57275945 -4.53508967 
      266   1   -30.27969782  9.08745934 -3.02332978 
      267   1   -30.27969782  15.14569891  3.02332978 
      268   2   -28.76829792  16.66039880  4.53508967 
      269   1   -27.25649803  3.02915978 -6.04651956 
      270   2   -25.74429814  4.54369967 -4.53493967 
      271   1   -27.25639804  6.05827956 -3.02316978 
      272   1   -27.25639804  12.11659912  3.02316978 
      273   2   -25.74429814  13.63119902  4.53493967 
      274   1   -27.25649803  15.14569891  6.04651956 
      275   1   -24.23219825 -0.00002609 -6.04642956 
      276   2   -22.71849836  1.51456989 -4.53487967 
      277   1   -24.23229825  3.02912978 -3.02321978 
      278   1   -24.23229825  9.08746934  3.02321978 
      279   2   -22.71849836  10.60199923  4.53487967 
      280   1   -24.23219825  12.11659912  6.04642956 
      281   1   -21.20399847 -3.02914978 -6.04647957 
      282   2   -19.68949858 -1.51456989 -4.53486967 
      283   1   -21.20399847  0.00000202 -3.02327978 
      284   1   -21.20399847  6.05829956  3.02327978 
      285   2   -19.68949858  7.57286945  4.53486967 
      286   1   -21.20399847  9.08744934  6.04647957 
      287   1   -18.17489869 -6.05829956 -6.04647957 
      288   2   -16.66029880 -4.54371967 -4.53486967 
      289   1   -18.17489869 -3.02914978 -3.02327978 
      290   1   -18.17489869  3.02914978  3.02327978 
      291   2   -16.66029880  4.54371967  4.53486967 
      292   1   -18.17489869  6.05829956  6.04647957 
      293   1   -15.14579891 -9.08744934 -6.04647957 
      294   2   -13.63119902 -7.57286945 -4.53486967 
      295   1   -15.14569891 -6.05829956 -3.02327978 
      296   1   -15.14569891  0.00000000  3.02327978 
      297   2   -13.63119902  1.51456989  4.53486967 
      298   1   -15.14579891  3.02914978  6.04647957 
      299   1   -12.11659912 -12.11659912 -6.04647957 
      300   2   -10.60199923 -10.60199923 -4.53486967 
      301   1   -12.11659912 -9.08744934 -3.02327978 
      302   1   -12.11659912 -3.02914978  3.02327978 
      303   2   -10.60199923 -1.51456989  4.53486967 
      304   1   -12.11659912 -0.00000000  6.04647957 
      305   1   -9.08744934 -15.14579891 -6.04647957 
      306   2   -7.57286945 -13.63119902 -4.53486967 
      307   1   -9.08744934 -12.11659912 -3.02327978 
      308   1   -9.08744934 -6.05829956  3.02327978 
      309   2   -7.57287945 -4.54372967  4.53486967 
      310   1   -9.08744934 -3.02914978  6.04647957 
      311   1   -6.05829956 -18.17489869 -6.04647957 
      312   2   -4.54371967 -16.66029880 -4.53486967 
      313   1   -6.05829956 -15.14569891 -3.02327978 
      314   1   -6.05829956 -9.08744934  3.02327978 
      315   2   -4.54372967 -7.57287945  4.53486967 
      316   1   -6.05829956 -6.05829956  6.04647957 
      317   1   -3.02914978 -21.20399847 -6.04647957 
      318   2   -1.51456989 -19.68949858 -4.53486967 
      319   1   -3.02914978 -18.17489869 -3.02327978 
      320   1   -3.02914978 -12.11659912  3.02327978 
      321   2   -1.51456989 -10.60199923  4.53486967 
      322   1   -3.02914978 -9.08744934  6.04647957 
      323   1   -0.00002609 -24.23219825 -6.04642956 
      324   2    1.51456989 -22.71849836 -4.53487967 
      325   1    0.00000202 -21.20399847 -3.02327978 
      326   1    0.00000000 -15.14569891  3.02327978 
      327   2    1.51456989 -13.63119902  4.53486967 
      328   1   -0.00000000 -12.11659912  6.04647957 
      329   1    3.02915978 -27.25649803 -6.04651956 
      330   2    4.54369967 -25.74429814 -4.53493967 
      331   1    3.02912978 -24.23229825 -3.02321978 
      332   1    3.02914978 -18.17489869  3.02327978 
      333   2    4.54371967 -16.66029880  4.53486967 
      334   1    3.02914978 -15.14579891  6.04647957 
      335   2    7.57275945 -28.76829792 -4.53508967 
      336   1    6.05827956 -27.25639804 -3.02316978 
      337   1    6.05829956 -21.20399847  3.02327978 
      338   2    7.57286945 -19.68949858  4.53486967 
      339   1    6.05829956 -18.17489869  6.04647957 
      340   1    9.08745934 -30.27969782 -3.02332978 
      341   1    9.08746934 -24.23229825  3.02321978 
      342   2    10.60199923 -22.71849836  4.53487967 
      343   1    9.08744934 -21.20399847  6.04647957 
      344   1    12.11659912 -27.25639804  3.02316978 
      345   2    13.63119902 -25.74429814  4.53493967 
      346   1    12.11659912 -24.23219825  6.04642956 
      347   1    15.14569891 -30.27969782  3.02332978 
      348   2    16.66039880 -28.76829792  4.53508967 
      349   1    15.14569891 -27.25649803  6.04651956 
      350   2   -28.76829792  13.63109901 -4.53508967 
      351   1   -30.27969782  15.14579891 -3.02332978 
      352   1   -30.27969782  21.20399847  3.02332978 
      353   2   -28.76829792  22.71859836  4.53509967 
      354   1   -27.25649803  9.08745934 -6.04651956 
      355   2   -25.74429814  10.60199923 -4.53493967 
      356   1   -27.25639804  12.11659912 -3.02316978 
      357   1   -27.25639804  18.17489869  3.02316978 
      358   2   -25.74429814  19.68949858  4.53493967 
      359   1   -27.25649803  21.20399847  6.04651956 
      360   1   -24.23219825  6.05826956 -6.04642956 
      361   2   -22.71849836  7.57286945 -4.53487967 
      362   1   -24.23229825  9.08742934 -3.02321978 
      363   1   -24.23229825  15.14579891  3.02321978 
      364   2   -22.71849836  16.66029880  4.53487967 
      365   1   -24.23219825  18.17489869  6.04642956 
      366   1   -21.20399847  3.02914978 -6.04647957 
      367   2   -19.68949858  4.54372967 -4.53486967 
      368   1   -21.20399847  6.05829956 -3.02327978 
      369   1   -21.20399847  12.11659912  3.02327978 
      370   2   -19.68949858  13.63119902  4.53486967 
      371   1   -21.20399847  15.14569891  6.04647957 
      372   1   -18.17489869  0.00000016 -6.04647957 
      373   2   -16.66029880  1.51457989 -4.53486967 
      374   1   -18.17489869  3.02914978 -3.02327978 
      375   1   -18.17489869  9.08744934  3.02327978 
      376   2   -16.66029880  10.60199923  4.53486967 
      377   1   -18.17489869  12.11659912  6.04647957 
      378   1   -15.14579891 -3.02914978 -6.04647957 
      379   2   -13.63119902 -1.51456989 -4.53486967 
      380   1   -15.14569891 -0.00000000 -3.02327978 
      381   1   -15.14569891  6.05829956  3.02327978 
      382   2   -13.63119902  7.57286945  4.53486967 
      383   1   -15.14579891  9.08744934  6.04647957 
      384   1   -12.11659912 -6.05829956 -6.04647957 
      385   2   -10.60199923 -4.54372967 -4.53486967 
      386   1   -12.11659912 -3.02914978 -3.02327978 
      387   1   -12.11659912  3.02914978  3.02327978 
      388   2   -10.60199923  4.54372967  4.53486967 
      389   1   -12.11659912  6.05829956  6.04647957 
      390   1   -9.08744934 -9.08744934 -6.04647957 
      391   2   -7.57286945 -7.57286945 -4.53486967 
      392   1   -9.08744934 -6.05829956 -3.02327978 
      393   1   -9.08744934  0.00000000  3.02327978 
      394   2   -7.57287945  1.51457989  4.53486967 
      395   1   -9.08744934  3.02914978  6.04647957 
      396   1   -6.05829956 -12.11659912 -6.04647957 
      397   2   -4.54372967 -10.60199923 -4.53486967 
      398   1   -6.05829956 -9.08744934 -3.02327978 
      399   1   -6.05829956 -3.02914978  3.02327978 
      400   2   -4.54371967 -1.51457989  4.53486967 
      401   1   -6.05829956  0.00000000  6.04647957 
      402   1   -3.02914978 -15.14579891 -6.04647957 
      403   2   -1.51456989 -13.63119902 -4.53486967 
      404   1   -3.02914978 -12.11659912 -3.02327978 
      405   1   -3.02914978 -6.05829956  3.02327978 
      406   2   -1.51457989 -4.54371967  4.53486967 
      407   1   -3.02914978 -3.02914978  6.04647957 
      408   1    0.00000016 -18.17489869 -6.04647957 
      409   2    1.51457989 -16.66029880 -4.53486967 
      410   1   -0.00000000 -15.14569891 -3.02327978 
      411   1    0.00000000 -9.08744934  3.02327978 
      412   2    1.51457989 -7.57287945  4.53486967 
      413   1    0.00000000 -6.05829956  6.04647957 
      414   1    3.02914978 -21.20399847 -6.04647957 
      415   2    4.54372967 -19.68949858 -4.53486967 
      416   1    3.02914978 -18.17489869 -3.02327978 
      417   1    3.02914978 -12.11659912  3.02327978 
      418   2    4.54372967 -10.60199923  4.53486967 
      419   1    3.02914978 -9.08744934  6.04647957 
      420   1    6.05826956 -24.23219825 -6.04642956 
      421   2    7.57286945 -22.71849836 -4.53487967 
      422   1    6.05829956 -21.20399847 -3.02327978 
      423   1    6.05829956 -15.14569891  3.02327978 
      424   2    7.57286945 -13.63119902  4.53486967 
      425   1    6.05829956 -12.11659912  6.04647957 
      426   1    9.08745934 -27.25649803 -6.04651956 
      427   2    10.60199923 -25.74429814 -4.53493967 
      428   1    9.08742934 -24.23229825 -3.02321978 
      429   1    9.08744934 -18.17489869  3.02327978 
      430   2    10.60199923 -16.66029880  4.53486967 
      431   1    9.08744934 -15.14579891  6.04647957 
      432   2    13.63109901 -28.76829792 -4.53508967 
      433   1    12.11659912 -27.25639804 -3.02316978 
      434   1    12.11659912 -21.20399847  3.02327978 
      435   2    13.63119902 -19.68949858  4.53486967 
      436   1    12.11659912 -18.17489869  6.04647957 
      437   1    15.14579891 -30.27969782 -3.02332978 
      438   1    15.14579891 -24.23229825  3.02321978 
      439   2    16.66029880 -22.71849836  4.53487967 
      440   1    15.14569891 -21.20399847  6.04647957 
      441   1    18.17489869 -27.25639804  3.02316978 
      442   2    19.68949858 -25.74429814  4.53493967 
      443   1    18.17489869 -24.23219825  6.04642956 
      444   1    21.20399847 -30.27969782  3.02332978 
      445   2    22.71859836 -28.76829792  4.53509967 
      446   1    21.20399847 -27.25649803  6.04651956 
      447   2   -28.76829792  19.68939858 -4.53508967 
      448   1   -30.27969782  21.20399847 -3.02333978 
      449   1   -30.27979781  27.25639804  3.02320978 
      450   2   -28.76849792  28.76849792  4.53533968 
      451   1   -27.25649803  15.14579891 -6.04651956 
      452   2   -25.74429814  16.66029880 -4.53493967 
      453   1   -27.25639804  18.17489869 -3.02316978 
      454   1   -27.25629803  24.23219825  3.02312978 
      455   2   -25.74439814  25.74439814  4.53501967 
      456   1   -27.25639804  27.25639804  6.04658957 
      457   1   -24.23219825  12.11659912 -6.04642956 
      458   2   -22.71849836  13.63119902 -4.53487967 
      459   1   -24.23229825  15.14569891 -3.02321978 
      460   1   -24.23229825  21.20409847  3.02321978 
      461   2   -22.71849836  22.71849836  4.53488967 
      462   1   -24.23229825  24.23229825  6.04637956 
      463   1   -21.20399847  9.08744934 -6.04647957 
      464   2   -19.68949858  10.60199923 -4.53486967 
      465   1   -21.20399847  12.11659912 -3.02327978 
      466   1   -21.20399847  18.17489869  3.02327978 
      467   2   -19.68949858  19.68949858  4.53486967 
      468   1   -21.20399847  21.20399847  6.04646956 
      469   1   -18.17489869  6.05829956 -6.04647957 
      470   2   -16.66029880  7.57287945 -4.53486967 
      471   1   -18.17489869  9.08744934 -3.02327978 
      472   1   -18.17489869  15.14579891  3.02327978 
      473   2   -16.66029880  16.66029880  4.53486967 
      474   1   -18.17489869  18.17489869  6.04647957 
      475   1   -15.14579891  3.02914978 -6.04647957 
      476   2   -13.63119902  4.54372967 -4.53486967 
      477   1   -15.14569891  6.05829956 -3.02327978 
      478   1   -15.14569891  12.11659912  3.02327978 
      479   2   -13.63119902  13.63119902  4.53486967 
      480   1   -15.14569891  15.14569891  6.04647957 
      481   1   -12.11659912  0.00000000 -6.04647957 
      482   2   -10.60199923  1.51456989 -4.53486967 
      483   1   -12.11659912  3.02914978 -3.02327978 
      484   1   -12.11659912  9.08744934  3.02327978 
      485   2   -10.60199923  10.60199923  4.53486967 
      486   1   -12.11659912  12.11659912  6.04647957 
      487   1   -9.08744934 -3.02914978 -6.04647957 
      488   2   -7.57286945 -1.51457989 -4.53486967 
      489   1   -9.08744934  0.00000000 -3.02327978 
      490   1   -9.08744934  6.05829956  3.02327978 
      491   2   -7.57286945  7.57286945  4.53486967 
      492   1   -9.08744934  9.08744934  6.04647957 
      493   1   -6.05829956 -6.05829956 -6.04647957 
      494   2   -4.54372967 -4.54371967 -4.53486967 
      495   1   -6.05829956 -3.02914978 -3.02327978 
      496   1   -6.05829956  3.02914978  3.02327978 
      497   2   -4.54371967  4.54371967  4.53486967 
      498   1   -6.05829956  6.05829956  6.04647957 
      499   1   -3.02914978 -9.08744934 -6.04647957 
      500   2   -1.51457989 -7.57286945 -4.53486967 
      501   1   -3.02914978 -6.05829956 -3.02327978 
      502   1   -3.02914978  0.00000000  3.02327978 
      503   2   -1.51456989  1.51456989  4.53486967 
      504   1   -3.02914978  3.02914978  6.04647957 
      505   1    0.00000000 -12.11659912 -6.04647957 
      506   2    1.51456989 -10.60199923 -4.53486967 
      507   1    0.00000000 -9.08744934 -3.02327978 
      508   1   -0.00000000 -3.02914978  3.02327978 
      509   2    1.51457989 -1.51456989  4.53486967 
      510   1    0.00000000  0.00000000  6.04647957 
      511   1    3.02914978 -15.14579891 -6.04647957 
      512   2    4.54372967 -13.63119902 -4.53486967 
      513   1    3.02914978 -12.11659912 -3.02327978 
      514   1    3.02914978 -6.05829956  3.02327978 
      515   2    4.54372967 -4.54371967  4.53486967 
      516   1    3.02914978 -3.02914978  6.04647957 
      517   1    6.05829956 -18.17489869 -6.04647957 
      518   2    7.57287945 -16.66029880 -4.53486967 
      519   1    6.05829956 -15.14569891 -3.02327978 
      520   1    6.05829956 -9.08744934  3.02327978 
      521   2    7.57287945 -7.57286945  4.53486967 
      522   1    6.05829956 -6.05829956  6.04647957 
      523   1    9.08744934 -21.20399847 -6.04647957 
      524   2    10.60199923 -19.68949858 -4.53486967 
      525   1    9.08744934 -18.17489869 -3.02327978 
      526   1    9.08744934 -12.11659912  3.02327978 
      527   2    10.60199923 -10.60199923  4.53486967 
      528   1    9.08744934 -9.08744934  6.04647957 
      529   1    12.11659912 -24.23219825 -6.04642956 
      530   2    13.63119902 -22.71849836 -4.53487967 
      531   1    12.11659912 -21.20399847 -3.02327978 
      532   1    12.11659912 -15.14569891  3.02327978 
      533   2    13.63119902 -13.63119902  4.53486967 
      534   1    12.11659912 -12.11659912  6.04647957 
      535   1    15.14579891 -27.25649803 -6.04651956 
      536   2    16.66029880 -25.74429814 -4.53493967 
      537   1    15.14569891 -24.23229825 -3.02321978 
      538   1    15.14579891 -18.17489869  3.02327978 
      539   2    16.66029880 -16.66029880  4.53486967 
      540   1    15.14569891 -15.14569891  6.04647957 
      541   2    19.68939858 -28.76829792 -4.53508967 
      542   1    18.17489869 -27.25639804 -3.02316978 
      543   1    18.17489869 -21.20399847  3.02327978 
      544   2    19.68949858 -19.68949858  4.53486967 
      545   1    18.17489869 -18.17489869  6.04647957 
      546   1    21.20399847 -30.27969782 -3.02333978 
      547   1    21.20409847 -24.23229825  3.02321978 