LAMMPS configuration data file

  2638 atoms

  4 atom types

  -50.279798  50.279798  xlo xhi
  -50.279798  50.279798  ylo yhi
  -26.046590  26.046590  zlo zhi

 Masses

  1   78.960
  2   112.411
  3   1.000
  4   1.000

 Atoms

        1   1   -28.76829792 -28.76829792  1.51116989 
        2   2   -30.27959781 -27.25619803  3.02303978 
        3   1   -28.76829792 -25.74419814  4.53510967 
        4   2   -27.25619803 -30.27959781  3.02303978 
        5   1   -25.74419814 -28.76829792  4.53510967 
        6   2   -27.25619803 -27.25619803  6.04640956 
        7   1   -28.76849792 -28.76849792 -4.53533968 
        8   2   -30.27979781 -27.25639804 -3.02320978 
        9   1   -28.76819792 -25.74439814 -1.51133989 
       10   1   -28.76819792 -22.71839836  1.51126989 
       11   2   -30.27969782 -21.20399847  3.02333978 
       12   1   -28.76829792 -19.68939858  4.53508967 
       13   2   -27.25639804 -30.27979781 -3.02320978 
       14   1   -25.74439814 -28.76819792 -1.51133989 
       15   1   -25.74429814 -25.74429814  1.51126989 
       16   2   -27.25629803 -24.23219825  3.02310978 
       17   1   -25.74429814 -22.71849836  4.53494967 
       18   2   -27.25649803 -21.20399847  6.04651956 
       19   1   -22.71839836 -28.76819792  1.51126989 
       20   2   -24.23219825 -27.25629803  3.02310978 
       21   1   -22.71849836 -25.74429814  4.53494967 
       22   2   -24.23219825 -24.23219825  6.04637956 
       23   2   -21.20399847 -30.27969782  3.02333978 
       24   1   -19.68939858 -28.76829792  4.53508967 
       25   2   -21.20399847 -27.25649803  6.04651956 
       26   1   -28.76829792 -22.71859836 -4.53509967 
       27   2   -30.27969782 -21.20399847 -3.02332978 
       28   1   -28.76809792 -19.68949858 -1.51126989 
       29   1   -28.76809792 -16.66029880  1.51126989 
       30   2   -30.27969782 -15.14579891  3.02332978 
       31   1   -28.76829792 -13.63109901  4.53508967 
       32   2   -27.25639804 -27.25639804 -6.04658957 
       33   1   -25.74439814 -25.74439814 -4.53501967 
       34   2   -27.25629803 -24.23219825 -3.02312978 
       35   1   -25.74429814 -22.71849836 -1.51122989 
       36   1   -25.74429814 -19.68949858  1.51123989 
       37   2   -27.25639804 -18.17489869  3.02316978 
       38   1   -25.74429814 -16.66029880  4.53493967 
       39   2   -27.25649803 -15.14579891  6.04651956 
       40   1   -22.71859836 -28.76829792 -4.53509967 
       41   2   -24.23219825 -27.25629803 -3.02312978 
       42   1   -22.71849836 -25.74429814 -1.51122989 
       43   1   -22.71849836 -22.71849836  1.51118989 
       44   2   -24.23229825 -21.20399847  3.02321978 
       45   1   -22.71849836 -19.68949858  4.53487967 
       46   2   -24.23219825 -18.17489869  6.04642956 
       47   2   -21.20399847 -30.27969782 -3.02332978 
       48   1   -19.68949858 -28.76809792 -1.51126989 
       49   1   -19.68949858 -25.74429814  1.51123989 
       50   2   -21.20399847 -24.23229825  3.02321978 
       51   1   -19.68949858 -22.71849836  4.53487967 
       52   2   -21.20399847 -21.20399847  6.04646956 
       53   1   -16.66029880 -28.76809792  1.51126989 
       54   2   -18.17489869 -27.25639804  3.02316978 
       55   1   -16.66029880 -25.74429814  4.53493967 
       56   2   -18.17489869 -24.23219825  6.04642956 
       57   2   -15.14579891 -30.27969782  3.02332978 
       58   1   -13.63109901 -28.76829792  4.53508967 
       59   2   -15.14579891 -27.25649803  6.04651956 
       60   1   -28.76829792 -16.66039880 -4.53508967 
       61   2   -30.27969782 -15.14569891 -3.02332978 
       62   1   -28.76809792 -13.63119902 -1.51126989 
       63   1   -28.76809792 -10.60199923  1.51126989 
       64   2   -30.27969782 -9.08745934  3.02332978 
       65   1   -28.76829792 -7.57275945  4.53508967 
       66   2   -27.25649803 -21.20399847 -6.04651956 
       67   1   -25.74429814 -19.68949858 -4.53493967 
       68   2   -27.25639804 -18.17489869 -3.02316978 
       69   1   -25.74429814 -16.66029880 -1.51123989 
       70   1   -25.74429814 -13.63119902  1.51123989 
       71   2   -27.25639804 -12.11659912  3.02316978 
       72   1   -25.74429814 -10.60199923  4.53493967 
       73   2   -27.25649803 -9.08745934  6.04651956 
       74   2   -24.23229825 -24.23229825 -6.04637956 
       75   1   -22.71849836 -22.71849836 -4.53488967 
       76   2   -24.23229825 -21.20409847 -3.02321978 
       77   1   -22.71849836 -19.68949858 -1.51118989 
       78   1   -22.71849836 -16.66029880  1.51118989 
       79   2   -24.23229825 -15.14569891  3.02321978 
       80   1   -22.71849836 -13.63119902  4.53487967 
       81   2   -24.23219825 -12.11659912  6.04642956 
       82   2   -21.20399847 -27.25649803 -6.04651956 
       83   1   -19.68949858 -25.74429814 -4.53493967 
       84   2   -21.20409847 -24.23229825 -3.02321978 
       85   1   -19.68949858 -22.71849836 -1.51118989 
       86   1   -19.68949858 -19.68949858  1.51119989 
       87   2   -21.20399847 -18.17489869  3.02327978 
       88   1   -19.68949858 -16.66029880  4.53486967 
       89   2   -21.20399847 -15.14579891  6.04647957 
       90   1   -16.66039880 -28.76829792 -4.53508967 
       91   2   -18.17489869 -27.25639804 -3.02316978 
       92   1   -16.66029880 -25.74429814 -1.51123989 
       93   1   -16.66029880 -22.71849836  1.51118989 
       94   2   -18.17489869 -21.20399847  3.02327978 
       95   1   -16.66029880 -19.68949858  4.53486967 
       96   2   -18.17489869 -18.17489869  6.04647957 
       97   2   -15.14569891 -30.27969782 -3.02332978 
       98   1   -13.63119902 -28.76809792 -1.51126989 
       99   1   -13.63119902 -25.74429814  1.51123989 
      100   2   -15.14569891 -24.23229825  3.02321978 
      101   1   -13.63119902 -22.71849836  4.53487967 
      102   2   -15.14579891 -21.20399847  6.04647957 
      103   1   -10.60199923 -28.76809792  1.51126989 
      104   2   -12.11659912 -27.25639804  3.02316978 
      105   1   -10.60199923 -25.74429814  4.53493967 
      106   2   -12.11659912 -24.23219825  6.04642956 
      107   2   -9.08745934 -30.27969782  3.02332978 
      108   1   -7.57275945 -28.76829792  4.53508967 
      109   2   -9.08745934 -27.25649803  6.04651956 
      110   1   -28.76829792 -10.60209923 -4.53508967 
      111   2   -30.27969782 -9.08743935 -3.02332978 
      112   1   -28.76809792 -7.57289945 -1.51126989 
      113   1   -28.76809792 -4.54369967  1.51126989 
      114   2   -30.27969782 -3.02915978  3.02332978 
      115   1   -28.76829792 -1.51445989  4.53508967 
      116   2   -27.25649803 -15.14569891 -6.04651956 
      117   1   -25.74429814 -13.63119902 -4.53493967 
      118   2   -27.25639804 -12.11659912 -3.02316978 
      119   1   -25.74429814 -10.60199923 -1.51123989 
      120   1   -25.74429814 -7.57285945  1.51123989 
      121   2   -27.25639804 -6.05827956  3.02316978 
      122   1   -25.74429814 -4.54369967  4.53493967 
      123   2   -27.25649803 -3.02915978  6.04651956 
      124   2   -24.23219825 -18.17489869 -6.04642956 
      125   1   -22.71849836 -16.66029880 -4.53487967 
      126   2   -24.23229825 -15.14579891 -3.02321978 
      127   1   -22.71849836 -13.63119902 -1.51118989 
      128   1   -22.71849836 -10.60199923  1.51118989 
      129   2   -24.23229825 -9.08742934  3.02321978 
      130   1   -22.71849836 -7.57286945  4.53487967 
      131   2   -24.23219825 -6.05826956  6.04642956 
      132   2   -21.20399847 -21.20399847 -6.04646956 
      133   1   -19.68949858 -19.68949858 -4.53486967 
      134   2   -21.20399847 -18.17489869 -3.02327978 
      135   1   -19.68949858 -16.66029880 -1.51119989 
      136   1   -19.68949858 -13.63119902  1.51119989 
      137   2   -21.20399847 -12.11659912  3.02327978 
      138   1   -19.68949858 -10.60199923  4.53486967 
      139   2   -21.20399847 -9.08744934  6.04647957 
      140   2   -18.17489869 -24.23219825 -6.04642956 
      141   1   -16.66029880 -22.71849836 -4.53487967 
      142   2   -18.17489869 -21.20399847 -3.02327978 
      143   1   -16.66029880 -19.68949858 -1.51119989 
      144   1   -16.66029880 -16.66029880  1.51119989 
      145   2   -18.17489869 -15.14569891  3.02327978 
      146   1   -16.66029880 -13.63119902  4.53486967 
      147   2   -18.17489869 -12.11659912  6.04647957 
      148   2   -15.14569891 -27.25649803 -6.04651956 
      149   1   -13.63119902 -25.74429814 -4.53493967 
      150   2   -15.14579891 -24.23229825 -3.02321978 
      151   1   -13.63119902 -22.71849836 -1.51118989 
      152   1   -13.63119902 -19.68949858  1.51119989 
      153   2   -15.14569891 -18.17489869  3.02327978 
      154   1   -13.63119902 -16.66029880  4.53486967 
      155   2   -15.14579891 -15.14579891  6.04647957 
      156   1   -10.60209923 -28.76829792 -4.53508967 
      157   2   -12.11659912 -27.25639804 -3.02316978 
      158   1   -10.60199923 -25.74429814 -1.51123989 
      159   1   -10.60199923 -22.71849836  1.51118989 
      160   2   -12.11659912 -21.20399847  3.02327978 
      161   1   -10.60199923 -19.68949858  4.53486967 
      162   2   -12.11659912 -18.17489869  6.04647957 
      163   2   -9.08743935 -30.27969782 -3.02332978 
      164   1   -7.57289945 -28.76809792 -1.51126989 
      165   1   -7.57285945 -25.74429814  1.51123989 
      166   2   -9.08742934 -24.23229825  3.02321978 
      167   1   -7.57286945 -22.71849836  4.53487967 
      168   2   -9.08744934 -21.20399847  6.04647957 
      169   1   -4.54369967 -28.76809792  1.51126989 
      170   2   -6.05827956 -27.25639804  3.02316978 
      171   1   -4.54369967 -25.74429814  4.53493967 
      172   2   -6.05826956 -24.23219825  6.04642956 
      173   2   -3.02915978 -30.27969782  3.02332978 
      174   1   -1.51445989 -28.76829792  4.53508967 
      175   2   -3.02915978 -27.25649803  6.04651956 
      176   1   -28.76829792 -4.54383967 -4.53508967 
      177   2   -30.27969782 -3.02913978 -3.02332978 
      178   1   -28.76809792 -1.51459989 -1.51126989 
      179   1   -28.76809792  1.51459989  1.51126989 
      180   2   -30.27969782  3.02913978  3.02332978 
      181   1   -28.76829792  4.54383967  4.53508967 
      182   2   -27.25649803 -9.08743935 -6.04651956 
      183   1   -25.74429814 -7.57289945 -4.53493967 
      184   2   -27.25639804 -6.05831956 -3.02316978 
      185   1   -25.74429814 -4.54373967 -1.51123989 
      186   1   -25.74429814 -1.51455989  1.51123989 
      187   2   -27.25639804  0.00001612  3.02316978 
      188   1   -25.74429814  1.51459989  4.53493967 
      189   2   -27.25649803  3.02913978  6.04651956 
      190   2   -24.23219825 -12.11659912 -6.04642956 
      191   1   -22.71849836 -10.60199923 -4.53487967 
      192   2   -24.23229825 -9.08746934 -3.02321978 
      193   1   -22.71849836 -7.57287945 -1.51118989 
      194   1   -22.71849836 -4.54371967  1.51118989 
      195   2   -24.23229825 -3.02912978  3.02321978 
      196   1   -22.71849836 -1.51456989  4.53487967 
      197   2   -24.23219825  0.00002609  6.04642956 
      198   2   -21.20399847 -15.14569891 -6.04647957 
      199   1   -19.68949858 -13.63119902 -4.53486967 
      200   2   -21.20399847 -12.11659912 -3.02327978 
      201   1   -19.68949858 -10.60199923 -1.51119989 
      202   1   -19.68949858 -7.57287945  1.51119989 
      203   2   -21.20399847 -6.05829956  3.02327978 
      204   1   -19.68949858 -4.54372967  4.53486967 
      205   2   -21.20399847 -3.02914978  6.04647957 
      206   2   -18.17489869 -18.17489869 -6.04647957 
      207   1   -16.66029880 -16.66029880 -4.53486967 
      208   2   -18.17489869 -15.14579891 -3.02327978 
      209   1   -16.66029880 -13.63119902 -1.51119989 
      210   1   -16.66029880 -10.60199923  1.51119989 
      211   2   -18.17489869 -9.08744934  3.02327978 
      212   1   -16.66029880 -7.57287945  4.53486967 
      213   2   -18.17489869 -6.05829956  6.04647957 
      214   2   -15.14569891 -21.20399847 -6.04647957 
      215   1   -13.63119902 -19.68949858 -4.53486967 
      216   2   -15.14579891 -18.17489869 -3.02327978 
      217   1   -13.63119902 -16.66029880 -1.51119989 
      218   1   -13.63119902 -13.63119902  1.51119989 
      219   2   -15.14569891 -12.11659912  3.02327978 
      220   1   -13.63119902 -10.60199923  4.53486967 
      221   2   -15.14579891 -9.08744934  6.04647957 
      222   2   -12.11659912 -24.23219825 -6.04642956 
      223   1   -10.60199923 -22.71849836 -4.53487967 
      224   2   -12.11659912 -21.20399847 -3.02327978 
      225   1   -10.60199923 -19.68949858 -1.51119989 
      226   1   -10.60199923 -16.66029880  1.51119989 
      227   2   -12.11659912 -15.14569891  3.02327978 
      228   1   -10.60199923 -13.63119902  4.53486967 
      229   2   -12.11659912 -12.11659912  6.04647957 
      230   2   -9.08743935 -27.25649803 -6.04651956 
      231   1   -7.57289945 -25.74429814 -4.53493967 
      232   2   -9.08746934 -24.23229825 -3.02321978 
      233   1   -7.57287945 -22.71849836 -1.51118989 
      234   1   -7.57287945 -19.68949858  1.51119989 
      235   2   -9.08744934 -18.17489869  3.02327978 
      236   1   -7.57287945 -16.66029880  4.53486967 
      237   2   -9.08744934 -15.14579891  6.04647957 
      238   1   -4.54383967 -28.76829792 -4.53508967 
      239   2   -6.05831956 -27.25639804 -3.02316978 
      240   1   -4.54373967 -25.74429814 -1.51123989 
      241   1   -4.54371967 -22.71849836  1.51118989 
      242   2   -6.05829956 -21.20399847  3.02327978 
      243   1   -4.54372967 -19.68949858  4.53486967 
      244   2   -6.05829956 -18.17489869  6.04647957 
      245   2   -3.02913978 -30.27969782 -3.02332978 
      246   1   -1.51459989 -28.76809792 -1.51126989 
      247   1   -1.51455989 -25.74429814  1.51123989 
      248   2   -3.02912978 -24.23229825  3.02321978 
      249   1   -1.51456989 -22.71849836  4.53487967 
      250   2   -3.02914978 -21.20399847  6.04647957 
      251   1    1.51459989 -28.76809792  1.51126989 
      252   2    0.00001612 -27.25639804  3.02316978 
      253   1    1.51459989 -25.74429814  4.53493967 
      254   2    0.00002609 -24.23219825  6.04642956 
      255   2    3.02913978 -30.27969782  3.02332978 
      256   1    4.54383967 -28.76829792  4.53508967 
      257   2    3.02913978 -27.25649803  6.04651956 
      258   1   -28.76829792  1.51445989 -4.53508967 
      259   2   -30.27969782  3.02915978 -3.02332978 
      260   1   -28.76809792  4.54369967 -1.51126989 
      261   1   -28.76809792  7.57289945  1.51126989 
      262   2   -30.27969782  9.08743935  3.02332978 
      263   1   -28.76829792  10.60209923  4.53508967 
      264   2   -27.25649803 -3.02913978 -6.04651956 
      265   1   -25.74429814 -1.51459989 -4.53493967 
      266   2   -27.25639804 -0.00001612 -3.02316978 
      267   1   -25.74429814  1.51455989 -1.51123989 
      268   1   -25.74429814  4.54373967  1.51123989 
      269   2   -27.25639804  6.05831956  3.02316978 
      270   1   -25.74429814  7.57289945  4.53493967 
      271   2   -27.25649803  9.08743935  6.04651956 
      272   2   -24.23219825 -6.05832956 -6.04642956 
      273   1   -22.71849836 -4.54372967 -4.53487967 
      274   2   -24.23229825 -3.02916978 -3.02321978 
      275   1   -22.71849836 -1.51457989 -1.51118989 
      276   1   -22.71849836  1.51457989  1.51118989 
      277   2   -24.23229825  3.02916978  3.02321978 
      278   1   -22.71849836  4.54372967  4.53487967 
      279   2   -24.23219825  6.05832956  6.04642956 
      280   2   -21.20399847 -9.08744934 -6.04647957 
      281   1   -19.68949858 -7.57286945 -4.53486967 
      282   2   -21.20399847 -6.05829956 -3.02327978 
      283   1   -19.68949858 -4.54371967 -1.51119989 
      284   1   -19.68949858 -1.51457989  1.51119989 
      285   2   -21.20399847 -0.00000202  3.02327978 
      286   1   -19.68949858  1.51456989  4.53486967 
      287   2   -21.20399847  3.02914978  6.04647957 
      288   2   -18.17489869 -12.11659912 -6.04647957 
      289   1   -16.66029880 -10.60199923 -4.53486967 
      290   2   -18.17489869 -9.08744934 -3.02327978 
      291   1   -16.66029880 -7.57287945 -1.51119989 
      292   1   -16.66029880 -4.54371967  1.51119989 
      293   2   -18.17489869 -3.02914978  3.02327978 
      294   1   -16.66029880 -1.51457989  4.53486967 
      295   2   -18.17489869 -0.00000016  6.04647957 
      296   2   -15.14569891 -15.14569891 -6.04647957 
      297   1   -13.63119902 -13.63119902 -4.53486967 
      298   2   -15.14569891 -12.11659912 -3.02327978 
      299   1   -13.63119902 -10.60199923 -1.51119989 
      300   1   -13.63119902 -7.57286945  1.51119989 
      301   2   -15.14569891 -6.05829956  3.02327978 
      302   1   -13.63119902 -4.54372967  4.53486967 
      303   2   -15.14579891 -3.02914978  6.04647957 
      304   2   -12.11659912 -18.17489869 -6.04647957 
      305   1   -10.60199923 -16.66029880 -4.53486967 
      306   2   -12.11659912 -15.14569891 -3.02327978 
      307   1   -10.60199923 -13.63119902 -1.51119989 
      308   1   -10.60199923 -10.60199923  1.51119989 
      309   2   -12.11659912 -9.08744934  3.02327978 
      310   1   -10.60199923 -7.57286945  4.53486967 
      311   2   -12.11659912 -6.05829956  6.04647957 
      312   2   -9.08744934 -21.20399847 -6.04647957 
      313   1   -7.57286945 -19.68949858 -4.53486967 
      314   2   -9.08744934 -18.17489869 -3.02327978 
      315   1   -7.57287945 -16.66029880 -1.51119989 
      316   1   -7.57286945 -13.63119902  1.51119989 
      317   2   -9.08744934 -12.11659912  3.02327978 
      318   1   -7.57286945 -10.60199923  4.53486967 
      319   2   -9.08744934 -9.08744934  6.04647957 
      320   2   -6.05832956 -24.23219825 -6.04642956 
      321   1   -4.54372967 -22.71849836 -4.53487967 
      322   2   -6.05829956 -21.20399847 -3.02327978 
      323   1   -4.54371967 -19.68949858 -1.51119989 
      324   1   -4.54371967 -16.66029880  1.51119989 
      325   2   -6.05829956 -15.14569891  3.02327978 
      326   1   -4.54372967 -13.63119902  4.53486967 
      327   2   -6.05829956 -12.11659912  6.04647957 
      328   2   -3.02913978 -27.25649803 -6.04651956 
      329   1   -1.51459989 -25.74429814 -4.53493967 
      330   2   -3.02916978 -24.23229825 -3.02321978 
      331   1   -1.51457989 -22.71849836 -1.51118989 
      332   1   -1.51457989 -19.68949858  1.51119989 
      333   2   -3.02914978 -18.17489869  3.02327978 
      334   1   -1.51457989 -16.66029880  4.53486967 
      335   2   -3.02914978 -15.14579891  6.04647957 
      336   1    1.51445989 -28.76829792 -4.53508967 
      337   2   -0.00001612 -27.25639804 -3.02316978 
      338   1    1.51455989 -25.74429814 -1.51123989 
      339   1    1.51457989 -22.71849836  1.51118989 
      340   2   -0.00000202 -21.20399847  3.02327978 
      341   1    1.51456989 -19.68949858  4.53486967 
      342   2   -0.00000016 -18.17489869  6.04647957 
      343   2    3.02915978 -30.27969782 -3.02332978 
      344   1    4.54369967 -28.76809792 -1.51126989 
      345   1    4.54373967 -25.74429814  1.51123989 
      346   2    3.02916978 -24.23229825  3.02321978 
      347   1    4.54372967 -22.71849836  4.53487967 
      348   2    3.02914978 -21.20399847  6.04647957 
      349   1    7.57289945 -28.76809792  1.51126989 
      350   2    6.05831956 -27.25639804  3.02316978 
      351   1    7.57289945 -25.74429814  4.53493967 
      352   2    6.05832956 -24.23219825  6.04642956 
      353   2    9.08743935 -30.27969782  3.02332978 
      354   1    10.60209923 -28.76829792  4.53508967 
      355   2    9.08743935 -27.25649803  6.04651956 
      356   1   -28.76829792  7.57275945 -4.53508967 
      357   2   -30.27969782  9.08745934 -3.02332978 
      358   1   -28.76809792  10.60199923 -1.51126989 
      359   1   -28.76809792  13.63119902  1.51126989 
      360   2   -30.27969782  15.14569891  3.02332978 
      361   1   -28.76829792  16.66039880  4.53508967 
      362   2   -27.25649803  3.02915978 -6.04651956 
      363   1   -25.74429814  4.54369967 -4.53493967 
      364   2   -27.25639804  6.05827956 -3.02316978 
      365   1   -25.74429814  7.57285945 -1.51123989 
      366   1   -25.74429814  10.60199923  1.51123989 
      367   2   -27.25639804  12.11659912  3.02316978 
      368   1   -25.74429814  13.63119902  4.53493967 
      369   2   -27.25649803  15.14569891  6.04651956 
      370   2   -24.23219825 -0.00002609 -6.04642956 
      371   1   -22.71849836  1.51456989 -4.53487967 
      372   2   -24.23229825  3.02912978 -3.02321978 
      373   1   -22.71849836  4.54371967 -1.51118989 
      374   1   -22.71849836  7.57287945  1.51118989 
      375   2   -24.23229825  9.08746934  3.02321978 
      376   1   -22.71849836  10.60199923  4.53487967 
      377   2   -24.23219825  12.11659912  6.04642956 
      378   2   -21.20399847 -3.02914978 -6.04647957 
      379   1   -19.68949858 -1.51456989 -4.53486967 
      380   2   -21.20399847  0.00000202 -3.02327978 
      381   1   -19.68949858  1.51457989 -1.51119989 
      382   1   -19.68949858  4.54371967  1.51119989 
      383   2   -21.20399847  6.05829956  3.02327978 
      384   1   -19.68949858  7.57286945  4.53486967 
      385   2   -21.20399847  9.08744934  6.04647957 
      386   2   -18.17489869 -6.05829956 -6.04647957 
      387   1   -16.66029880 -4.54371967 -4.53486967 
      388   2   -18.17489869 -3.02914978 -3.02327978 
      389   1   -16.66029880 -1.51457989 -1.51119989 
      390   1   -16.66029880  1.51457989  1.51119989 
      391   2   -18.17489869  3.02914978  3.02327978 
      392   1   -16.66029880  4.54371967  4.53486967 
      393   2   -18.17489869  6.05829956  6.04647957 
      394   2   -15.14579891 -9.08744934 -6.04647957 
      395   1   -13.63119902 -7.57286945 -4.53486967 
      396   2   -15.14569891 -6.05829956 -3.02327978 
      397   1   -13.63119902 -4.54372967 -1.51119989 
      398   1   -13.63119902 -1.51456989  1.51119989 
      399   2   -15.14569891  0.00000000  3.02327978 
      400   1   -13.63119902  1.51456989  4.53486967 
      401   2   -15.14579891  3.02914978  6.04647957 
      402   2   -12.11659912 -12.11659912 -6.04647957 
      403   1   -10.60199923 -10.60199923 -4.53486967 
      404   2   -12.11659912 -9.08744934 -3.02327978 
      405   1   -10.60199923 -7.57287945 -1.51119989 
      406   1   -10.60199923 -4.54372967  1.51119989 
      407   2   -12.11659912 -3.02914978  3.02327978 
      408   1   -10.60199923 -1.51456989  4.53486967 
      409   2   -12.11659912 -0.00000000  6.04647957 
      410   2   -9.08744934 -15.14579891 -6.04647957 
      411   1   -7.57286945 -13.63119902 -4.53486967 
      412   2   -9.08744934 -12.11659912 -3.02327978 
      413   1   -7.57286945 -10.60199923 -1.51119989 
      414   1   -7.57287945 -7.57287945  1.51119989 
      415   2   -9.08744934 -6.05829956  3.02327978 
      416   1   -7.57287945 -4.54372967  4.53486967 
      417   2   -9.08744934 -3.02914978  6.04647957 
      418   2   -6.05829956 -18.17489869 -6.04647957 
      419   1   -4.54371967 -16.66029880 -4.53486967 
      420   2   -6.05829956 -15.14569891 -3.02327978 
      421   1   -4.54372967 -13.63119902 -1.51119989 
      422   1   -4.54371967 -10.60199923  1.51119989 
      423   2   -6.05829956 -9.08744934  3.02327978 
      424   1   -4.54372967 -7.57287945  4.53486967 
      425   2   -6.05829956 -6.05829956  6.04647957 
      426   2   -3.02914978 -21.20399847 -6.04647957 
      427   1   -1.51456989 -19.68949858 -4.53486967 
      428   2   -3.02914978 -18.17489869 -3.02327978 
      429   1   -1.51457989 -16.66029880 -1.51119989 
      430   1   -1.51456989 -13.63119902  1.51119989 
      431   2   -3.02914978 -12.11659912  3.02327978 
      432   1   -1.51456989 -10.60199923  4.53486967 
      433   2   -3.02914978 -9.08744934  6.04647957 
      434   2   -0.00002609 -24.23219825 -6.04642956 
      435   1    1.51456989 -22.71849836 -4.53487967 
      436   2    0.00000202 -21.20399847 -3.02327978 
      437   1    1.51457989 -19.68949858 -1.51119989 
      438   1    1.51457989 -16.66029880  1.51119989 
      439   2    0.00000000 -15.14569891  3.02327978 
      440   1    1.51456989 -13.63119902  4.53486967 
      441   2   -0.00000000 -12.11659912  6.04647957 
      442   2    3.02915978 -27.25649803 -6.04651956 
      443   1    4.54369967 -25.74429814 -4.53493967 
      444   2    3.02912978 -24.23229825 -3.02321978 
      445   1    4.54371967 -22.71849836 -1.51118989 
      446   1    4.54371967 -19.68949858  1.51119989 
      447   2    3.02914978 -18.17489869  3.02327978 
      448   1    4.54371967 -16.66029880  4.53486967 
      449   2    3.02914978 -15.14579891  6.04647957 
      450   1    7.57275945 -28.76829792 -4.53508967 
      451   2    6.05827956 -27.25639804 -3.02316978 
      452   1    7.57285945 -25.74429814 -1.51123989 
      453   1    7.57287945 -22.71849836  1.51118989 
      454   2    6.05829956 -21.20399847  3.02327978 
      455   1    7.57286945 -19.68949858  4.53486967 
      456   2    6.05829956 -18.17489869  6.04647957 
      457   2    9.08745934 -30.27969782 -3.02332978 
      458   1    10.60199923 -28.76809792 -1.51126989 
      459   1    10.60199923 -25.74429814  1.51123989 
      460   2    9.08746934 -24.23229825  3.02321978 
      461   1    10.60199923 -22.71849836  4.53487967 
      462   2    9.08744934 -21.20399847  6.04647957 
      463   1    13.63119902 -28.76809792  1.51126989 
      464   2    12.11659912 -27.25639804  3.02316978 
      465   1    13.63119902 -25.74429814  4.53493967 
      466   2    12.11659912 -24.23219825  6.04642956 
      467   2    15.14569891 -30.27969782  3.02332978 
      468   1    16.66039880 -28.76829792  4.53508967 
      469   2    15.14569891 -27.25649803  6.04651956 
      470   1   -28.76829792  13.63109901 -4.53508967 
      471   2   -30.27969782  15.14579891 -3.02332978 
      472   1   -28.76809792  16.66029880 -1.51126989 
      473   1   -28.76809792  19.68949858  1.51126989 
      474   2   -30.27969782  21.20399847  3.02332978 
      475   1   -28.76829792  22.71859836  4.53509967 
      476   2   -27.25649803  9.08745934 -6.04651956 
      477   1   -25.74429814  10.60199923 -4.53493967 
      478   2   -27.25639804  12.11659912 -3.02316978 
      479   1   -25.74429814  13.63119902 -1.51123989 
      480   1   -25.74429814  16.66029880  1.51123989 
      481   2   -27.25639804  18.17489869  3.02316978 
      482   1   -25.74429814  19.68949858  4.53493967 
      483   2   -27.25649803  21.20399847  6.04651956 
      484   2   -24.23219825  6.05826956 -6.04642956 
      485   1   -22.71849836  7.57286945 -4.53487967 
      486   2   -24.23229825  9.08742934 -3.02321978 
      487   1   -22.71849836  10.60199923 -1.51118989 
      488   1   -22.71849836  13.63119902  1.51118989 
      489   2   -24.23229825  15.14579891  3.02321978 
      490   1   -22.71849836  16.66029880  4.53487967 
      491   2   -24.23219825  18.17489869  6.04642956 
      492   2   -21.20399847  3.02914978 -6.04647957 
      493   1   -19.68949858  4.54372967 -4.53486967 
      494   2   -21.20399847  6.05829956 -3.02327978 
      495   1   -19.68949858  7.57287945 -1.51119989 
      496   1   -19.68949858  10.60199923  1.51119989 
      497   2   -21.20399847  12.11659912  3.02327978 
      498   1   -19.68949858  13.63119902  4.53486967 
      499   2   -21.20399847  15.14569891  6.04647957 
      500   2   -18.17489869  0.00000016 -6.04647957 
      501   1   -16.66029880  1.51457989 -4.53486967 
      502   2   -18.17489869  3.02914978 -3.02327978 
      503   1   -16.66029880  4.54371967 -1.51119989 
      504   1   -16.66029880  7.57287945  1.51119989 
      505   2   -18.17489869  9.08744934  3.02327978 
      506   1   -16.66029880  10.60199923  4.53486967 
      507   2   -18.17489869  12.11659912  6.04647957 
      508   2   -15.14579891 -3.02914978 -6.04647957 
      509   1   -13.63119902 -1.51456989 -4.53486967 
      510   2   -15.14569891 -0.00000000 -3.02327978 
      511   1   -13.63119902  1.51456989 -1.51119989 
      512   1   -13.63119902  4.54372967  1.51119989 
      513   2   -15.14569891  6.05829956  3.02327978 
      514   1   -13.63119902  7.57286945  4.53486967 
      515   2   -15.14579891  9.08744934  6.04647957 
      516   2   -12.11659912 -6.05829956 -6.04647957 
      517   1   -10.60199923 -4.54372967 -4.53486967 
      518   2   -12.11659912 -3.02914978 -3.02327978 
      519   1   -10.60199923 -1.51457989 -1.51119989 
      520   1   -10.60199923  1.51457989  1.51119989 
      521   2   -12.11659912  3.02914978  3.02327978 
      522   1   -10.60199923  4.54372967  4.53486967 
      523   2   -12.11659912  6.05829956  6.04647957 
      524   2   -9.08744934 -9.08744934 -6.04647957 
      525   1   -7.57286945 -7.57286945 -4.53486967 
      526   2   -9.08744934 -6.05829956 -3.02327978 
      527   1   -7.57286945 -4.54372967 -1.51119989 
      528   1   -7.57286945 -1.51457989  1.51119989 
      529   2   -9.08744934  0.00000000  3.02327978 
      530   1   -7.57287945  1.51457989  4.53486967 
      531   2   -9.08744934  3.02914978  6.04647957 
      532   2   -6.05829956 -12.11659912 -6.04647957 
      533   1   -4.54372967 -10.60199923 -4.53486967 
      534   2   -6.05829956 -9.08744934 -3.02327978 
      535   1   -4.54372967 -7.57287945 -1.51119989 
      536   1   -4.54372967 -4.54372967  1.51119989 
      537   2   -6.05829956 -3.02914978  3.02327978 
      538   1   -4.54371967 -1.51457989  4.53486967 
      539   2   -6.05829956  0.00000000  6.04647957 
      540   2   -3.02914978 -15.14579891 -6.04647957 
      541   1   -1.51456989 -13.63119902 -4.53486967 
      542   2   -3.02914978 -12.11659912 -3.02327978 
      543   1   -1.51457989 -10.60199923 -1.51119989 
      544   1   -1.51457989 -7.57286945  1.51119989 
      545   2   -3.02914978 -6.05829956  3.02327978 
      546   1   -1.51457989 -4.54371967  4.53486967 
      547   2   -3.02914978 -3.02914978  6.04647957 