LAMMPS configuration data file

  5614 atoms

  5 atom types

  -49.506998  49.506998  xlo xhi
  -49.506998  49.506998  ylo yhi
  -37.796599  37.796599  zlo zhi

 Masses

  1   32.065
  2   112.411
  3   78.960
  4   1.000
  5   1.000

 Atoms

        1   1   -27.88419799 -27.88419799  13.42209903 
        2   2   -29.32439788 -26.40129809  14.88809892 
        3   1   -27.85209799 -24.92789820  16.33239882 
        4   2   -26.40129809 -29.32439788  14.88809892 
        5   1   -24.92789820 -27.85209799  16.33239882 
        6   2   -26.37539810 -26.37539810  17.79159872 
        7   1   -27.96599798 -27.96599798  7.58461945 
        8   2   -29.41229787 -26.46189809  9.03750935 
        9   1   -27.92839798 -24.98619820  10.48779924 
       10   2   -29.36819788 -23.49519831  11.95139914 
       11   1   -27.89019799 -22.02239841  13.40129903 
       12   2   -29.32949788 -20.54139852  14.87079893 
       13   1   -27.85679799 -19.07059862  16.31879882 
       14   2   -26.46189809 -29.41229787  9.03750935 
       15   1   -24.98619820 -27.92839798  10.48779924 
       16   2   -26.43359809 -26.43359809  11.94279914 
       17   1   -24.95819820 -24.95819820  13.39419904 
       18   2   -26.40449810 -23.47419830  14.85509893 
       19   1   -24.93229820 -22.00169841  16.30469883 
       20   2   -26.37779810 -20.52519852  17.76879872 
       21   2   -23.49519831 -29.36819788  11.95139914 
       22   1   -22.02239841 -27.89019799  13.40129903 
       23   2   -23.47419830 -26.40449810  14.85509893 
       24   1   -22.00169841 -24.93229820  16.30469883 
       25   2   -23.45269831 -23.45269831  17.76129872 
       26   2   -20.54139852 -29.32949788  14.87079893 
       27   1   -19.07059862 -27.85679799  16.31879882 
       28   2   -20.52519852 -26.37779810  17.76879872 
       29   3   -28.01709798 -25.04399819  4.59417967 
       30   2   -29.47389787 -23.53679830  6.13504956 
       31   1   -27.97789798 -22.06549841  7.58028945 
       32   2   -29.42599788 -20.57219851  9.03461935 
       33   1   -27.93669799 -19.10429862  10.48519925 
       34   2   -29.37699788 -17.61869873  11.94969914 
       35   1   -27.89629799 -16.15109883  13.40039903 
       36   2   -29.33409788 -14.67239894  14.87029893 
       37   1   -27.85869799 -13.20429905  16.31799882 
       38   3   -25.04399819 -28.01709798  4.59417967 
       39   2   -26.50249809 -26.50249809  6.13128956 
       40   1   -25.01959819 -25.01959819  7.57640945 
       41   2   -26.47389809 -23.52209830  9.02508935 
       42   1   -24.99279820 -22.04709841  10.47699924 
       43   2   -26.44159809 -20.55889852  11.93339914 
       44   1   -24.96429820 -19.08869862  13.38589903 
       45   2   -26.41029810 -17.60819873  14.84889893 
       46   1   -24.93539820 -16.13859884  16.29939882 
       47   2   -26.37949810 -14.66349894  17.76489872 
       48   2   -23.53679830 -29.47389787  6.13504956 
       49   1   -22.06549841 -27.97789798  7.58028945 
       50   2   -23.52209830 -26.47389809  9.02508935 
       51   1   -22.04709841 -24.99279820  10.47699924 
       52   2   -23.50089830 -23.50089830  11.92799914 
       53   1   -22.02629841 -22.02629841  13.38019903 
       54   2   -23.47839831 -20.54329852  14.83709893 
       55   1   -22.00539841 -19.07319863  16.28939882 
       56   2   -23.45509830 -17.59589873  17.74889872 
       57   2   -20.57219851 -29.42599788  9.03461935 
       58   1   -19.10429862 -27.93669799  10.48519925 
       59   2   -20.55889852 -26.44159809  11.93339914 
       60   1   -19.08869862 -24.96429820  13.38589903 
       61   2   -20.54329852 -23.47839831  14.83709893 
       62   1   -19.07319863 -22.00539841  16.28939882 
       63   2   -20.52679852 -20.52679852  17.74279872 
       64   2   -17.61869873 -29.37699788  11.94969914 
       65   1   -16.15109883 -27.89629799  13.40039903 
       66   2   -17.60819873 -26.41029810  14.84889893 
       67   1   -16.13859884 -24.93539820  16.29939882 
       68   2   -17.59589873 -23.45509830  17.74889872 
       69   2   -14.67239894 -29.33409788  14.87029893 
       70   1   -13.20429905 -27.85869799  16.31799882 
       71   2   -14.66349894 -26.37949810  17.76489872 
       72   3   -28.01479798 -28.01479798 -4.59206967 
       73   3   -28.02999798 -19.13329862  4.59577967 
       74   2   -29.48779787 -17.63659873  6.13899955 
       75   1   -27.98709798 -16.17329883  7.58410945 
       76   2   -29.43679787 -14.68629894  9.03881935 
       77   1   -27.94429798 -13.22309905  10.48899924 
       78   2   -29.38479788 -11.74179915  11.95439914 
       79   1   -27.90069799 -10.27679926  13.40339903 
       80   2   -29.33789788 -8.80074936  14.87399892 
       81   1   -27.85939799 -7.33595947  16.32109882 
       82   3   -25.05489819 -22.08909840  4.59394967 
       83   2   -26.51729809 -20.59199852  6.13374956 
       84   1   -25.02799819 -19.12029862  7.57820945 
       85   2   -26.48449809 -17.63249873  9.02808935 
       86   1   -24.99949819 -16.16479883  10.47949924 
       87   2   -26.44979809 -14.68169894  11.93539914 
       88   1   -24.96909820 -13.21519904  13.38719903 
       89   2   -26.41469809 -11.73719915  14.84969893 
       90   1   -24.93659820 -10.27139926  16.30009883 
       91   2   -26.38129809 -8.79887937  17.76589872 
       92   3   -22.08909840 -25.05489819  4.59394967 
       93   2   -23.55139830 -23.55139830  6.13183956 
       94   1   -22.07089841 -22.07089841  7.57683945 
       95   2   -23.53099830 -20.57919851  9.02355935 
       96   1   -22.05139841 -19.10659862  10.47539924 
       97   2   -23.50779830 -17.62219873  11.92749914 
       98   1   -22.03069841 -16.15289883  13.37989903 
       99   2   -23.48319830 -14.67329894  14.83639893 
      100   1   -22.00709841 -13.20659905  16.28839882 
      101   2   -23.45679831 -11.73229916  17.74859872 
      102   3   -19.13329862 -28.02999798  4.59577967 
      103   2   -20.59199852 -26.51729809  6.13374956 
      104   1   -19.12029862 -25.02799819  7.57820945 
      105   2   -20.57919851 -23.53099830  9.02355935 
      106   1   -19.10659862 -22.05139841  10.47539924 
      107   2   -20.56399852 -20.56399852  11.92409914 
      108   1   -19.09209862 -19.09209862  13.37759903 
      109   2   -20.54739852 -17.61059873  14.83059893 
      110   1   -19.07489862 -16.14049884  16.28289882 
      111   2   -20.52799852 -14.66459894  17.73879872 
      112   2   -17.63659873 -29.48779787  6.13899955 
      113   1   -16.17329883 -27.98709798  7.58410945 
      114   2   -17.63249873 -26.48449809  9.02808935 
      115   1   -16.16479883 -24.99949819  10.47949924 
      116   2   -17.62219873 -23.50779830  11.92749914 
      117   1   -16.15289883 -22.03069841  13.37989903 
      118   2   -17.61059873 -20.54739852  14.83059893 
      119   1   -16.14049884 -19.07489862  16.28289882 
      120   2   -17.59619873 -17.59619873  17.73479872 
      121   2   -14.68629894 -29.43679787  9.03881935 
      122   1   -13.22309905 -27.94429798  10.48899924 
      123   2   -14.68169894 -26.44979809  11.93539914 
      124   1   -13.21519904 -24.96909820  13.38719903 
      125   2   -14.67329894 -23.48319830  14.83639893 
      126   1   -13.20659905 -22.00709841  16.28839882 
      127   2   -14.66459894 -20.52799852  17.73879872 
      128   2   -11.74179915 -29.38479788  11.95439914 
      129   1   -10.27679926 -27.90069799  13.40339903 
      130   2   -11.73719915 -26.41469809  14.84969893 
      131   1   -10.27139926 -24.93659820  16.30009883 
      132   2   -11.73229916 -23.45679831  17.74859872 
      133   2   -8.80074936 -29.33789788  14.87399892 
      134   1   -7.33595947 -27.85939799  16.32109882 
      135   2   -8.79887937 -26.38129809  17.76589872 
      136   1   -27.93929798 -27.93929798 -10.49489924 
      137   2   -29.43999787 -26.49489808 -9.03864935 
      138   1   -27.98279798 -25.02569819 -7.57908945 
      139   2   -29.49169787 -23.57019830 -6.13756956 
      140   3   -28.02779798 -22.08699841 -4.59353967 
      141   3   -28.03889798 -13.23659904  4.59984967 
      142   2   -29.49849787 -11.74649915  6.14475956 
      143   1   -27.99529798 -10.28689926  7.58945945 
      144   2   -29.44489787 -8.80340937  9.04542935 
      145   1   -27.94969798 -7.34272947  10.49489924 
      146   2   -29.38909788 -5.86340958  11.96049914 
      147   1   -27.90239798 -4.40135968  13.40909903 
      148   2   -29.34069788 -2.92721979  14.87949893 
      149   1   -27.86139799 -1.46367989  16.32599882 
      150   2   -26.49489808 -29.43999787 -9.03864935 
      151   1   -25.02569819 -27.98279798 -7.57908945 
      152   2   -26.52639808 -26.52639808 -6.13622956 
      153   3   -25.05199819 -25.05199819 -4.59363967 
      154   3   -25.06329819 -16.18469883  4.59801967 
      155   2   -26.52819808 -14.69609894  6.13906955 
      156   1   -25.03579819 -13.23049904  7.58359945 
      157   2   -26.49429809 -11.74769915  9.03263935 
      158   1   -25.00669820 -10.28339926  10.48319924 
      159   2   -26.45619809 -8.80326936  11.94009914 
      160   1   -24.97189820 -7.34015947  13.39109904 
      161   2   -26.41759810 -5.86516958  14.85409893 
      162   1   -24.93849820 -4.40148968  16.30399882 
      163   2   -26.38339810 -2.92927979  17.76969872 
      164   2   -23.57019830 -29.49169787 -6.13756956 
      165   3   -22.08699841 -28.02779798 -4.59353967 
      166   3   -22.09529841 -19.13679862  4.59620967 
      167   2   -23.56169830 -17.64719873  6.13660956 
      168   1   -22.07709841 -16.17579883  7.58072945 
      169   2   -23.54009830 -14.69239894  9.02796935 
      170   1   -22.05779841 -13.22439904  10.47859924 
      171   2   -23.51549830 -11.74419915  11.92989914 
      172   1   -22.03469841 -10.27889926  13.38139903 
      173   2   -23.48699830 -8.80211937  14.83799893 
      174   1   -22.00899841 -7.33845947  16.28979882 
      175   2   -23.45969830 -5.86570958  17.74979872 
      176   3   -19.13679862 -22.09529841  4.59620967 
      177   2   -20.60069851 -20.60069851  6.13565956 
      178   1   -19.12369862 -19.12369862  7.57917945 
      179   2   -20.58649851 -17.63849873  9.02558935 
      180   1   -19.11089862 -16.16649883  10.47589924 
      181   2   -20.57049852 -14.68559894  11.92559914 
      182   1   -19.09539862 -13.21759905  13.37759903 
      183   2   -20.55149851 -11.73999915  14.83039893 
      184   1   -19.07609862 -10.27359926  16.28349883 
      185   2   -20.53119852 -8.80032937  17.73849872 
      186   3   -16.18469883 -25.06329819  4.59801967 
      187   2   -17.64719873 -23.56169830  6.13660956 
      188   1   -16.17579883 -22.07709841  7.58072945 
      189   2   -17.63849873 -20.58649851  9.02558935 
      190   1   -16.16649883 -19.11089862  10.47589924 
      191   2   -17.62729873 -17.62729873  11.92459914 
      192   1   -16.15549883 -16.15549883  13.37639903 
      193   2   -17.61389873 -14.67669894  14.82749893 
      194   1   -16.14139883 -13.20769905  16.28039882 
      195   2   -17.59719873 -11.73289915  17.73409872 
      196   3   -13.23659904 -28.03889798  4.59984967 
      197   2   -14.69609894 -26.52819808  6.13906955 
      198   1   -13.23049904 -25.03579819  7.58359945 
      199   2   -14.69239894 -23.54009830  9.02796935 
      200   1   -13.22439904 -22.05779841  10.47859924 
      201   2   -14.68559894 -20.57049852  11.92559914 
      202   1   -13.21759905 -19.09539862  13.37759903 
      203   2   -14.67669894 -17.61389873  14.82749893 
      204   1   -13.20769905 -16.14139883  16.28039882 
      205   2   -14.66479894 -14.66479894  17.73259872 
      206   2   -11.74649915 -29.49849787  6.14475956 
      207   1   -10.28689926 -27.99529798  7.58945945 
      208   2   -11.74769915 -26.49429809  9.03263935 
      209   1   -10.28339926 -25.00669820  10.48319924 
      210   2   -11.74419915 -23.51549830  11.92989914 
      211   1   -10.27889926 -22.03469841  13.38139903 
      212   2   -11.73999915 -20.55149851  14.83039893 
      213   1   -10.27359926 -19.07609862  16.28349883 
      214   2   -11.73289915 -17.59719873  17.73409872 
      215   2   -8.80340937 -29.44489787  9.04542935 
      216   1   -7.34272947 -27.94969798  10.49489924 
      217   2   -8.80326936 -26.45619809  11.94009914 
      218   1   -7.34015947 -24.97189820  13.39109904 
      219   2   -8.80211937 -23.48699830  14.83799893 
      220   1   -7.33845947 -22.00899841  16.28979882 
      221   2   -8.80032937 -20.53119852  17.73849872 
      222   2   -5.86340958 -29.38909788  11.96049914 
      223   1   -4.40135968 -27.90239798  13.40909903 
      224   2   -5.86516958 -26.41759810  14.85409893 
      225   1   -4.40148968 -24.93849820  16.30399882 
      226   2   -5.86570958 -23.45969830  17.74979872 
      227   2   -2.92721979 -29.34069788  14.87949893 
      228   1   -1.46367989 -27.86139799  16.32599882 
      229   2   -2.92927979 -26.38339810  17.76969872 
      230   1   -27.86579799 -27.86579799 -16.35339882 
      231   2   -29.34649788 -26.42469809 -14.88999893 
      232   1   -27.90069799 -24.97119820 -13.40889903 
      233   2   -29.39119788 -23.52319830 -11.95339914 
      234   1   -27.94379798 -22.05599841 -10.48529924 
      235   2   -29.44489787 -20.60279851 -9.03635935 
      236   1   -27.99159798 -19.12519862 -7.58158945 
      237   2   -29.50049787 -17.66749872 -6.14133956 
      238   3   -28.03909798 -16.18159883 -4.59806967 
      239   3   -28.04519797 -7.34877947  4.60453967 
      240   2   -29.50499787 -5.86183958  6.15051956 
      241   1   -27.99909798 -4.40492968  7.59518945 
      242   2   -29.44829787 -2.92280979  9.05061935 
      243   1   -27.95079798 -1.46462989  10.49889924 
      244   2   -29.39169788  0.01269510  11.96379914 
      245   1   -27.90389798  1.47286990  13.41169903 
      246   2   -29.34309788  2.94614979  14.88119893 
      247   1   -27.86179799  4.40829968  16.32579882 
      248   2   -26.42469809 -29.34649788 -14.88999893 
      249   1   -24.97119820 -27.90069799 -13.40889903 
      250   2   -26.45909809 -26.45909809 -11.94529914 
      251   1   -25.00069819 -25.00069819 -10.48009924 
      252   2   -26.49559809 -23.54739830 -9.02861935 
      253   1   -25.03169819 -22.07539841 -7.57796945 
      254   2   -26.53199809 -20.61409851 -6.13784956 
      255   3   -25.06209819 -19.13419862 -4.59758967 
      256   3   -25.07029819 -10.29239925  4.60266967 
      257   2   -26.53669808 -8.80869937  6.14440956 
      258   1   -25.04239819 -7.34554947  7.58866945 
      259   2   -26.49969809 -5.86606958  9.03960935 
      260   1   -25.00929820 -4.40460968  10.48979924 
      261   2   -26.45879809 -2.92615979  11.94589914 
      262   1   -24.97329820 -1.46512990  13.39679903 
      263   2   -26.42029809  0.00879293  14.85869893 
      264   1   -24.93929820  1.47098989  16.30729882 
      265   2   -26.38489810  2.94169979  17.77169872 
      266   2   -23.52319830 -29.39119788 -11.95339914 
      267   1   -22.05599841 -27.94379798 -10.48529924 
      268   2   -23.54739830 -26.49559809 -9.02861935 
      269   1   -22.07539841 -25.03169819 -7.57796945 
      270   2   -23.56789830 -23.56789830 -6.13732956 
      271   3   -22.09309841 -22.09309841 -4.59740967 
      272   3   -22.10169840 -13.23749904  4.60085967 
      273   2   -23.57059830 -11.75529915  6.14225956 
      274   1   -22.08389841 -10.28849926  7.58611945 
      275   2   -23.54789830 -8.80851936  9.03263935 
      276   1   -22.06339841 -7.34362947  10.48369925 
      277   2   -23.51969830 -5.86620958  11.93609914 
      278   1   -22.03719841 -4.40332968  13.38739903 
      279   2   -23.48989830 -2.92882979  14.84409893 
      280   1   -22.01079841 -1.46725989  16.29589883 
      281   2   -23.46149831  0.00520706  17.75489872 
      282   2   -20.60279851 -29.44489787 -9.03635935 
      283   1   -19.12519862 -27.99159798 -7.58158945 
      284   2   -20.61409851 -26.53199809 -6.13784956 
      285   3   -19.13419862 -25.06209819 -4.59758967 
      286   3   -19.14049862 -16.18629883  4.59922967 
      287   2   -20.60839851 -14.70229894  6.14061956 
      288   1   -19.12889862 -13.23149905  7.58402945 
      289   2   -20.59439851 -11.75259915  9.03025935 
      290   1   -19.11649862 -10.28419926  10.48029924 
      291   2   -20.57699852 -8.80675937  11.92969914 
      292   1   -19.09939862 -7.34194947  13.38209903 
      293   2   -20.55559852 -5.86710957  14.83499893 
      294   1   -19.07899862 -4.40414968  16.28789882 
      295   2   -20.53389852 -2.93188979  17.74349872 
      296   2   -17.66749872 -29.50049787 -6.14133956 
      297   3   -16.18159883 -28.03909798 -4.59806967 
      298   3   -16.18629883 -19.14049862  4.59922967 
      299   2   -17.65329872 -17.65329872  6.13952956 
      300   1   -16.17839883 -16.17839883  7.58273945 
      301   2   -17.64469873 -14.69729894  9.02848935 
      302   1   -16.17019883 -13.22629904  10.47799924 
      303   2   -17.63289873 -11.74829915  11.92699914 
      304   1   -16.15909883 -10.27989926  13.37909903 
      305   2   -17.61819873 -8.80430937  14.83019893 
      306   1   -16.14329883 -7.33983947  16.28269882 
      307   2   -17.60119873 -5.86719958  17.73549872 
      308   3   -13.23749904 -22.10169840  4.60085967 
      309   2   -14.70229894 -20.60839851  6.14061956 
      310   1   -13.23149905 -19.12889862  7.58402945 
      311   2   -14.69729894 -17.64469873  9.02848935 
      312   1   -13.22629904 -16.17019883  10.47799924 
      313   2   -14.69009894 -14.69009894  11.92559914 
      314   1   -13.21949905 -13.21949905  13.37729904 
      315   2   -14.67999894 -11.74229915  14.82729893 
      316   1   -13.20819905 -10.27349926  16.27919882 
      317   2   -14.66709894 -8.80073937  17.73239872 
      318   3   -10.29239925 -25.07029819  4.60266967 
      319   2   -11.75529915 -23.57059830  6.14225956 
      320   1   -10.28849926 -22.08389841  7.58611945 
      321   2   -11.75259915 -20.59439851  9.03025935 
      322   1   -10.28419926 -19.11649862  10.48029924 
      323   2   -11.74829915 -17.63289873  11.92699914 
      324   1   -10.27989926 -16.15909883  13.37909903 
      325   2   -11.74229915 -14.67999894  14.82729893 
      326   1   -10.27349926 -13.20819905  16.27919882 
      327   2   -11.73329915 -11.73329915  17.73079872 
      328   3   -7.34877947 -28.04519797  4.60453967 
      329   2   -8.80869937 -26.53669808  6.14440956 
      330   1   -7.34554947 -25.04239819  7.58866945 
      331   2   -8.80851936 -23.54789830  9.03263935 
      332   1   -7.34362947 -22.06339841  10.48369925 
      333   2   -8.80675937 -20.57699852  11.92969914 
      334   1   -7.34194947 -19.09939862  13.38209903 
      335   2   -8.80430937 -17.61819873  14.83019893 
      336   1   -7.33983947 -16.14329883  16.28269882 
      337   2   -8.80073937 -14.66709894  17.73239872 
      338   2   -5.86183958 -29.50499787  6.15051956 
      339   1   -4.40492968 -27.99909798  7.59518945 
      340   2   -5.86606958 -26.49969809  9.03960935 
      341   1   -4.40460968 -25.00929820  10.48979924 
      342   2   -5.86620958 -23.51969830  11.93609914 
      343   1   -4.40332968 -22.03719841  13.38739903 
      344   2   -5.86710957 -20.55559852  14.83499893 
      345   1   -4.40414968 -19.07899862  16.28789882 
      346   2   -5.86719958 -17.60119873  17.73549872 
      347   2   -2.92280979 -29.44829787  9.05061935 
      348   1   -1.46462989 -27.95079798  10.49889924 
      349   2   -2.92615979 -26.45879809  11.94589914 
      350   1   -1.46512990 -24.97329820  13.39679903 
      351   2   -2.92882979 -23.48989830  14.84409893 
      352   1   -1.46725989 -22.01079841  16.29589883 
      353   2   -2.93188979 -20.53389852  17.74349872 
      354   2    0.01269510 -29.39169788  11.96379914 
      355   1    1.47286990 -27.90389798  13.41169903 
      356   2    0.00879293 -26.42029809  14.85869893 
      357   1    1.47098989 -24.93929820  16.30729882 
      358   2    0.00520706 -23.46149831  17.75489872 
      359   2    2.94614979 -29.34309788  14.88119893 
      360   1    4.40829968 -27.86179799  16.32579882 
      361   2    2.94169979 -26.38489810  17.77169872 
      362   1   -27.86439799 -22.01449841 -16.32549882 
      363   2   -29.34649788 -20.56329852 -14.87339893 
      364   1   -27.90229799 -19.09939862 -13.40119903 
      365   2   -29.39309788 -17.64409873 -11.95249914 
      366   1   -27.94869798 -16.17119883 -10.48809924 
      367   2   -29.44869787 -14.71449894 -9.04184935 
      368   1   -27.99759798 -13.23359904 -7.58789945 
      369   2   -29.50539787 -11.77599915 -6.14722956 
      370   3   -28.04529798 -10.28959926 -4.60283967 
      371   3   -28.04749797 -1.46915989  4.60760967 
      372   2   -29.50649787  0.01726130  6.15302956 
      373   1   -27.99919798  1.47269989  7.59664945 
      374   2   -29.44909787  2.95367979  9.05152935 
      375   1   -27.95059798  4.41082968  10.49869924 
      376   2   -29.39269788  5.88760958  11.96259914 
      377   1   -27.90369799  7.34723947  13.40859903 
      378   2   -29.34459788  8.81865937  14.87769893 
      379   1   -27.86299799  10.27899926  16.32259882 
      380   2   -26.39249809 -26.39249809 -17.79659872 
      381   1   -24.94159820 -24.94159820 -16.31819882 
      382   2   -26.42449810 -23.49529830 -14.85819893 
      383   1   -24.97109820 -22.03479841 -13.38959904 
      384   2   -26.46039809 -20.58249851 -11.93639914 
      385   1   -25.00499819 -19.11339862 -10.47909925 
      386   2   -26.49949808 -17.65549872 -9.03114935 
      387   1   -25.03869819 -16.17889883 -7.58184945 
      388   2   -26.53809809 -14.71619894 -6.14236956 
      389   3   -25.07079819 -13.23449905 -4.60116967 
      390   3   -25.07469819 -4.40789968  4.60700967 
      391   2   -26.53999809 -2.92687979  6.15020955 
      392   1   -25.04309819 -1.46638989  7.59337945 
      393   2   -26.50069809  0.01224040  9.04296935 
      394   1   -25.00879819  1.47197989  10.49149924 
      395   2   -26.46019809  2.94811979  11.94679914 
      396   1   -24.97339820  4.40834968  13.39549903 
      397   2   -26.42169809  5.88142957  14.85629893 
      398   1   -24.93949820  7.34194947  16.30389883 
      399   2   -26.38699809  8.81070936  17.76829872 
      400   1   -22.01449841 -27.86439799 -16.32549882 
      401   2   -23.49529830 -26.42449810 -14.85819893 
      402   1   -22.03479841 -24.97109820 -13.38959904 
      403   2   -23.52239830 -23.52239830 -11.93159914 
      404   1   -22.05749841 -22.05749841 -10.47689924 
      405   2   -23.54829830 -20.59909851 -9.02748935 
      406   1   -22.07999841 -19.12699862 -7.58082945 
      407   2   -23.57239830 -17.66179873 -6.14141956 
      408   3   -22.10149841 -16.18429883 -4.60074967 
      409   3   -22.10819840 -7.34821947  4.60528967 
      410   2   -23.57689830 -5.86994958  6.14811955 
      411   1   -22.08819841 -4.40617968  7.59262945 
      412   2   -23.55079830 -2.92852979  9.04005935 
      413   1   -22.06359841 -1.46594989  10.48929924 
      414   2   -23.52129830  0.00945985  11.94009914 
      415   1   -22.03749841  1.47015989  13.39079903 
      416   2   -23.49169831  2.94403979  14.84499893 
      417   1   -22.01019841  4.40516968  16.29379882 
      418   2   -23.46259831  5.87489958  17.75169872 
      419   2   -20.56329852 -29.34649788 -14.87339893 
      420   1   -19.09939862 -27.90229799 -13.40119903 
      421   2   -20.58249851 -26.46039809 -11.93639914 
      422   1   -19.11339862 -25.00499819 -10.47909925 
      423   2   -20.59909851 -23.54829830 -9.02748935 
      424   1   -19.12699862 -22.07999841 -7.58082945 
      425   2   -20.61359851 -20.61359851 -6.14102956 
      426   3   -19.13939862 -19.13939862 -4.60079967 
      427   3   -19.14589862 -10.29109926  4.60379967 
      428   2   -20.61679851 -8.81354937  6.14573956 
      429   1   -19.13559862 -7.34589947  7.58996945 
      430   2   -20.60049851 -5.87026958  9.03709935 
      431   1   -19.12009862 -4.40586968  10.48739924 
      432   2   -20.57949851 -2.93011979  11.93649914 
      433   1   -19.09989862 -1.46805989  13.38899903 
      434   2   -20.55759851  0.00550668  14.84079893 
      435   1   -19.07899862  1.46832989  16.29129883 
      436   2   -20.53469852  2.93971979  17.74429872 
      437   2   -17.64409873 -29.39309788 -11.95249914 
      438   1   -16.17119883 -27.94869798 -10.48809924 
      439   2   -17.65549872 -26.49949808 -9.03114935 
      440   1   -16.17889883 -25.03869819 -7.58184945 
      441   2   -17.66179873 -23.57239830 -6.14141956 
      442   3   -16.18429883 -22.10149841 -4.60074967 
      443   3   -16.18879883 -13.23669904  4.60292967 
      444   2   -17.65989873 -11.75839915  6.14480956 
      445   1   -16.18339883 -10.28819926  7.58844945 
      446   2   -17.65169872 -8.81190937  9.03416935 
      447   1   -16.17589883 -7.34524947  10.48499924 
      448   2   -17.63789872 -5.87007958  11.93409914 
      449   1   -16.16109883 -4.40571968  13.38619903 
      450   2   -17.62089873 -2.93269979  14.83689893 
      451   1   -16.14489883 -1.46927989  16.28889883 
      452   2   -17.60279873  0.00315426  17.74119872 
      453   2   -14.71449894 -29.44869787 -9.04184935 
      454   1   -13.23359904 -27.99759798 -7.58789945 
      455   2   -14.71619894 -26.53809809 -6.14236956 
      456   3   -13.23449905 -25.07079819 -4.60116967 
      457   3   -13.23669904 -16.18879883  4.60292967 
      458   2   -14.70649894 -14.70649894  6.14395955 
      459   1   -13.23389904 -13.23389904  7.58794945 
      460   2   -14.70309894 -11.75659915  9.03219935 
      461   1   -13.23119904 -10.28649926  10.48239924 
      462   2   -14.69599894 -8.81038936  11.93059914 
      463   1   -13.22259905 -7.34345947  13.38179903 
      464   2   -14.68299894 -5.87045958  14.83299893 
      465   1   -13.20979904 -4.40480968  16.28509883 
      466   2   -14.66969894 -2.93298979  17.73769872 
      467   2   -11.77599915 -29.50539787 -6.14722956 
      468   3   -10.28959926 -28.04529798 -4.60283967 
      469   3   -10.29109926 -19.14589862  4.60379967 
      470   2   -11.75839915 -17.65989873  6.14480956 
      471   1   -10.28819926 -16.18339883  7.58844945 
      472   2   -11.75659915 -14.70309894  9.03219935 
      473   1   -10.28649926 -13.23119904  10.48239924 
      474   2   -11.75289915 -11.75289915  11.92879914 
      475   1   -10.28239926 -10.28239926  13.37929903 
      476   2   -11.74529915 -8.80728936  14.82819893 
      477   1   -10.27419926 -7.33953947  16.28029882 
      478   2   -11.73539915 -5.86781958  17.73359872 
      479   3   -7.34821947 -22.10819840  4.60528967 
      480   2   -8.81354937 -20.61679851  6.14573956 
      481   1   -7.34589947 -19.13559862  7.58996945 
      482   2   -8.81190937 -17.65169872  9.03416935 
      483   1   -7.34524947 -16.17589883  10.48499924 
      484   2   -8.81038936 -14.69599894  11.93059914 
      485   1   -7.34345947 -13.22259905  13.38179903 
      486   2   -8.80728936 -11.74529915  14.82819893 
      487   1   -7.33953947 -10.27419926  16.28029882 
      488   2   -8.80215937 -8.80215937  17.73069872 
      489   3   -4.40789968 -25.07469819  4.60700967 
      490   2   -5.86994958 -23.57689830  6.14811955 
      491   1   -4.40617968 -22.08819841  7.59262945 
      492   2   -5.87026958 -20.60049851  9.03709935 
      493   1   -4.40586968 -19.12009862  10.48739924 
      494   2   -5.87007958 -17.63789872  11.93409914 
      495   1   -4.40571968 -16.16109883  13.38619903 
      496   2   -5.87045958 -14.68299894  14.83299893 
      497   1   -4.40480968 -13.20979904  16.28509883 
      498   2   -5.86781958 -11.73539915  17.73359872 
      499   3   -1.46915989 -28.04749797  4.60760967 
      500   2   -2.92687979 -26.53999809  6.15020955 
      501   1   -1.46638989 -25.04309819  7.59337945 
      502   2   -2.92852979 -23.55079830  9.04005935 
      503   1   -1.46594989 -22.06359841  10.48929924 
      504   2   -2.93011979 -20.57949851  11.93649914 
      505   1   -1.46805989 -19.09989862  13.38899903 
      506   2   -2.93269979 -17.62089873  14.83689893 
      507   1   -1.46927989 -16.14489883  16.28889883 
      508   2   -2.93298979 -14.66969894  17.73769872 
      509   2    0.01726130 -29.50649787  6.15302956 
      510   1    1.47269989 -27.99919798  7.59664945 
      511   2    0.01224040 -26.50069809  9.04296935 
      512   1    1.47197989 -25.00879819  10.49149924 
      513   2    0.00945985 -23.52129830  11.94009914 
      514   1    1.47015989 -22.03749841  13.39079903 
      515   2    0.00550668 -20.55759851  14.84079893 
      516   1    1.46832989 -19.07899862  16.29129883 
      517   2    0.00315426 -17.60279873  17.74119872 
      518   2    2.95367979 -29.44909787  9.05152935 
      519   1    4.41082968 -27.95059798  10.49869924 
      520   2    2.94811979 -26.46019809  11.94679914 
      521   1    4.40834968 -24.97339820  13.39549903 
      522   2    2.94403979 -23.49169831  14.84499893 
      523   1    4.40516968 -22.01019841  16.29379882 
      524   2    2.93971979 -20.53469852  17.74429872 
      525   2    5.88760958 -29.39269788  11.96259914 
      526   1    7.34723947 -27.90369799  13.40859903 
      527   2    5.88142957 -26.42169809  14.85629893 
      528   1    7.34194947 -24.93949820  16.30389883 
      529   2    5.87489958 -23.46259831  17.75169872 
      530   2    8.81865937 -29.34459788  14.87769893 
      531   1    10.27899926 -27.86299799  16.32259882 
      532   2    8.81070936 -26.38699809  17.76829872 
      533   1   -27.86349799 -16.14879883 -16.32029882 
      534   2   -29.34599788 -14.69199894 -14.87369893 
      535   1   -27.90379799 -13.22339905 -13.40439903 
      536   2   -29.39369788 -11.76519915 -11.95799914 
      537   1   -27.95089798 -10.28889926 -10.49409924 
      538   2   -29.44999787 -8.83128936 -9.04744935 