LAMMPS configuration data file

  4841 atoms

  5 atom types

  -49.624598  49.624598  xlo xhi
  -49.624598  49.624598  ylo yhi
  -31.935999  31.935999  zlo zhi

 Masses

  1   32.065
  2   112.411
  3   78.960
  4   1.000
  5   1.000

 Atoms

        1   1   -28.01719798 -28.01719798  7.58682945 
        2   2   -29.46219787 -26.51239809  9.03953935 
        3   1   -27.97619798 -25.03309819  10.48339924 
        4   2   -26.51239809 -29.46219787  9.03953935 
        5   1   -25.03309819 -27.97619798  10.48339924 
        6   2   -26.47929809 -26.47929809  11.93599914 
        7   3   -28.09019797 -28.09019797  1.53468989 
        8   2   -29.56639787 -26.58109808  3.06046978 
        9   3   -28.06799798 -25.09639819  4.59407967 
       10   2   -29.52469787 -23.58919830  6.13473956 
       11   1   -28.02809798 -22.11429840  7.57472945 
       12   2   -29.47519787 -20.61809851  9.02729935 
       13   1   -27.98299798 -19.14629862  10.47249925 
       14   2   -26.58109808 -29.56639787  3.06046978 
       15   3   -25.09639819 -28.06799798  4.59407967 
       16   2   -26.55419809 -26.55419809  6.13138956 
       17   1   -25.06929819 -25.06929819  7.57199946 
       18   2   -26.52339809 -23.57039830  9.01840935 
       19   1   -25.03919819 -22.09359840  10.46439924 
       20   2   -26.48549809 -20.60199851  11.91729914 
       21   2   -23.58919830 -29.52469787  6.13473956 
       22   1   -22.11429840 -28.02809798  7.57472945 
       23   2   -23.57039830 -26.52339809  9.01840935 
       24   1   -22.09359840 -25.03919819  10.46439924 
       25   2   -23.54549830 -23.54549830  11.91219914 
       26   2   -20.61809851 -29.47519787  9.02729935 
       27   1   -19.14629862 -27.98299798  10.47249925 
       28   2   -20.60199851 -26.48549809  11.91729914 
       29   3   -28.06699797 -28.06699797 -4.58142967 
       30   2   -29.58119786 -26.60079808 -3.05132978 
       31   3   -28.09799797 -25.11419819 -1.52296989 
       32   2   -29.59979786 -23.62949830  0.00165182 
       33   3   -28.10439797 -22.14639840  1.53032989 
       34   2   -29.58609786 -20.65179851  3.05743978 
       35   3   -28.08119797 -19.17899861  4.59159967 
       36   2   -29.54029787 -17.68109873  6.13255956 
       37   1   -28.03699798 -16.21389883  7.57234945 
       38   2   -29.48419787 -14.72279893  9.02569935 
       39   1   -27.98839798 -13.25639904  10.47119924 
       40   2   -26.60079808 -29.58119786 -3.05132978 
       41   3   -25.11419819 -28.09799797 -1.52296989 
       42   2   -26.60629808 -26.60629808  0.00081223 
       43   3   -25.11829819 -25.11829819  1.52954989 
       44   2   -26.59589808 -23.61879830  3.05616978 
       45   3   -25.10469819 -22.13799840  4.59082967 
       46   2   -26.56869808 -20.63949851  6.12753956 
       47   1   -25.07729819 -19.16569862  7.56827945 
       48   2   -26.53229809 -17.67359872  9.01446935 
       49   1   -25.04449819 -16.20329883  10.46089924 
       50   2   -26.49169809 -14.71599894  11.91459914 
       51   2   -23.62949830 -29.59979786  0.00165182 
       52   3   -22.14639840 -28.10439797  1.53032989 
       53   2   -23.61879830 -26.59589808  3.05616978 
       54   3   -22.13799840 -25.10469819  4.59082967 
       55   2   -23.60159830 -23.60159830  6.12665956 
       56   1   -22.11999840 -22.11999840  7.56679945 
       57   2   -23.57899830 -20.62639851  9.01079935 
       58   1   -22.09699841 -19.14989862  10.45809924 
       59   2   -23.55119830 -17.66109873  11.90549914 
       60   2   -20.65179851 -29.58609786  3.05743978 
       61   3   -19.17899861 -28.08119797  4.59159967 
       62   2   -20.63949851 -26.56869808  6.12753956 
       63   1   -19.16569862 -25.07729819  7.56827945 
       64   2   -20.62639851 -23.57899830  9.01079935 
       65   1   -19.14989862 -22.09699841  10.45809924 
       66   2   -20.60589851 -20.60589851  11.90339914 
       67   2   -17.68109873 -29.54029787  6.13255956 
       68   1   -16.21389883 -28.03699798  7.57234945 
       69   2   -17.67359872 -26.53229809  9.01446935 
       70   1   -16.20329883 -25.04449819  10.46089924 
       71   2   -17.66109873 -23.55119830  11.90549914 
       72   2   -14.72279893 -29.48419787  9.02569935 
       73   1   -13.25639904 -27.98839798  10.47119924 
       74   2   -14.71599894 -26.49169809  11.91459914 
       75   1   -27.98559798 -27.98559798 -10.48049924 
       76   2   -29.48799787 -26.54359808 -9.02553935 
       77   1   -28.03089797 -25.07379819 -7.56754945 
       78   2   -29.54209787 -23.61889829 -6.12847956 
       79   3   -28.07739797 -22.13469840 -4.58608967 
       80   2   -29.59249787 -20.66869851 -3.05664978 
       81   3   -28.11129797 -19.18379862 -1.52713989 
       82   2   -29.61479786 -17.70559872 -0.00111470 
       83   3   -28.11699797 -16.22849883  1.52863989 
       84   2   -29.59929786 -14.74019894  3.05807978 
       85   3   -28.08919797 -13.27299904  4.59159967 
       86   2   -29.54709787 -11.77899915  6.13380956 
       87   1   -28.04049797 -10.31629926  7.57395945 
       88   2   -29.48589787 -8.82823936  9.02936935 
       89   1   -27.98629798 -7.36571947  10.47419924 
       90   2   -26.54359808 -29.48799787 -9.02553935 
       91   1   -25.07379819 -28.03089797 -7.56754945 
       92   2   -26.57769808 -26.57769808 -6.12515956 
       93   3   -25.10159819 -25.10159819 -4.58683967 
       94   2   -26.60509808 -23.63149829 -3.05624978 
       95   3   -25.12379819 -22.14849840 -1.52757989 
       96   2   -26.61849808 -20.66679851 -0.00162659 
       97   3   -25.12899819 -19.18729861  1.52845989 
       98   2   -26.60969808 -17.69819872  3.05674978 
       99   3   -25.11329819 -16.22599883  4.59168967 
      100   2   -26.57839808 -14.73419894  6.12849956 
      101   1   -25.08239819 -13.26589904  7.56869945 
      102   2   -26.53839809 -11.77889915  9.01571935 
      103   1   -25.04609819 -10.31329926  10.46229924 
      104   2   -26.49189809 -8.82882936  11.91739914 
      105   2   -23.61889829 -29.54209787 -6.12847956 
      106   3   -22.13469840 -28.07739797 -4.58608967 
      107   2   -23.63149829 -26.60509808 -3.05624978 
      108   3   -22.14849840 -25.12379819 -1.52757989 
      109   2   -23.63599830 -23.63599830 -0.00208232 
      110   3   -22.15259840 -22.15259840  1.52846989 
      111   2   -23.63049829 -20.66109851  3.05609978 
      112   3   -22.14459840 -19.18239861  4.59116967 
      113   2   -23.61179830 -17.69079872  6.12773956 
      114   1   -22.12499840 -16.21759883  7.56788945 
      115   2   -23.58599830 -14.72989894  9.01086935 
      116   1   -22.09979840 -13.25919904  10.45769924 
      117   2   -23.55429830 -11.77459915  11.90609914 
      118   2   -20.66869851 -29.59249787 -3.05664978 
      119   3   -19.18379862 -28.11129797 -1.52713989 
      120   2   -20.66679851 -26.61849808 -0.00162659 
      121   3   -19.18729861 -25.12899819  1.52845989 
      122   2   -20.66109851 -23.63049829  3.05609978 
      123   3   -19.18239861 -22.14459840  4.59116967 
      124   2   -20.64929851 -20.64929851  6.12676956 
      125   1   -19.16999862 -19.16999862  7.56797946 
      126   2   -20.63229851 -17.68019872  9.01045935 
      127   1   -19.15189862 -16.20469883  10.45689925 
      128   2   -20.60969851 -14.71889894  11.90209914 
      129   2   -17.70559872 -29.61479786 -0.00111470 
      130   3   -16.22849883 -28.11699797  1.52863989 
      131   2   -17.69819872 -26.60969808  3.05674978 
      132   3   -16.22599883 -25.11329819  4.59168967 
      133   2   -17.69079872 -23.61179830  6.12773956 
      134   1   -16.21759883 -22.12499840  7.56788945 
      135   2   -17.68019872 -20.63229851  9.01045935 
      136   1   -16.20469883 -19.15189862  10.45689925 
      137   2   -17.66409872 -17.66409872  11.90139914 
      138   2   -14.74019894 -29.59929786  3.05807978 
      139   3   -13.27299904 -28.08919797  4.59159967 
      140   2   -14.73419894 -26.57839808  6.12849956 
      141   1   -13.26589904 -25.08239819  7.56869945 
      142   2   -14.72989894 -23.58599830  9.01086935 
      143   1   -13.25919904 -22.09979840  10.45769924 
      144   2   -14.71889894 -20.60969851  11.90209914 
      145   2   -11.77899915 -29.54709787  6.13380956 
      146   1   -10.31629926 -28.04049797  7.57395945 
      147   2   -11.77889915 -26.53839809  9.01571935 
      148   1   -10.31329926 -25.04609819  10.46229924 
      149   2   -11.77459915 -23.55429830  11.90609914 
      150   2   -8.82823936 -29.48589787  9.02936935 
      151   1   -7.36571947 -27.98629798  10.47419924 
      152   2   -8.82882936 -26.49189809  11.91739914 
      153   1   -27.98559798 -22.09839841 -10.46959924 
      154   2   -29.48879787 -20.64519851 -9.02434935 
      155   1   -28.03559798 -19.16649862 -7.57113945 
      156   2   -29.54689787 -17.70769872 -6.13432956 
      157   3   -28.08559797 -16.22069883 -4.59223967 
      158   2   -29.60079786 -14.75629894 -3.06173978 
      159   3   -28.11999797 -13.27349904 -1.53038989 
      160   2   -29.62289786 -11.79849915 -0.00229037 
      161   3   -28.12259797 -10.32489925  1.52808989 
      162   2   -29.60239786 -8.83798936  3.05850978 
      163   3   -28.08969797 -7.37483947  4.59269967 
      164   2   -29.54729787 -5.88355958  6.13700956 
      165   1   -28.03919798 -4.42261968  7.57617945 
      166   2   -29.48489787 -2.93598979  9.03179935 
      167   1   -27.98409798 -1.47468989  10.47529924 
      168   2   -26.50259808 -26.50259808 -11.92589914 
      169   1   -25.04319819 -25.04319819 -10.46369925 
      170   2   -26.54139808 -23.59329830 -9.01413935 
      171   1   -25.07709819 -22.12099840 -7.56674945 
      172   2   -26.57939808 -20.66059851 -6.12878956 
      173   3   -25.10949819 -19.17899861 -4.59157967 
      174   2   -26.61319808 -17.71029872 -3.06071978 
      175   3   -25.13239819 -16.22899883 -1.53046989 
      176   2   -26.62829808 -14.75259894 -0.00285457 
      177   3   -25.13669819 -13.27809904  1.52826989 
      178   2   -26.61679808 -11.79299915  3.05728978 
      179   3   -25.11659818 -10.32439926  4.59149967 
      180   2   -26.58109808 -8.83639936  6.13063955 
      181   1   -25.08339819 -7.37128947  7.57114945 
      182   2   -26.53799808 -5.88586957  9.01921935 
      183   1   -25.04279819 -4.42279968  10.46409925 
      184   2   -26.48909809 -2.93932979  11.91859914 
      185   1   -22.09839841 -27.98559798 -10.46959924 
      186   2   -23.59329830 -26.54139808 -9.01413935 
      187   1   -22.12099840 -25.07709819 -7.56674945 
      188   2   -23.61649830 -23.61649830 -6.12859956 
      189   3   -22.14099840 -22.14099840 -4.59170967 
      190   2   -23.63579829 -20.66929851 -3.06119978 
      191   3   -22.15589840 -19.18909862 -1.53131989 
      192   2   -23.64499829 -17.70979872 -0.00302698 
      193   3   -22.16029840 -16.23199883  1.52801989 
      194   2   -23.63949830 -14.74859894  3.05812978 
      195   3   -22.14969840 -13.27569904  4.59240967 
      196   2   -23.61709829 -11.78849915  6.12902956 
      197   1   -22.12799841 -10.31949926  7.56949945 
      198   2   -23.58849830 -8.83624936  9.01401935 
      199   1   -22.09849841 -7.36927947  10.45989925 
      200   2   -23.55209830 -5.88669958  11.90869914 
      201   2   -20.64519851 -29.48879787 -9.02434935 
      202   1   -19.16649862 -28.03559798 -7.57113945 
      203   2   -20.66059851 -26.57939808 -6.12878956 
      204   3   -19.17899861 -25.10949819 -4.59157967 
      205   2   -20.66929851 -23.63579829 -3.06119978 
      206   3   -19.18909862 -22.15589840 -1.53131989 
      207   2   -20.67299851 -20.67299851 -0.00351308 
      208   3   -19.19239861 -19.19239861  1.52758989 
      209   2   -20.66939851 -17.70599872  3.05798978 
      210   3   -19.18719862 -16.22939883  4.59354967 
      211   2   -20.65629851 -14.74259894  6.12954956 
      212   1   -19.17319861 -13.26869904  7.56946945 
      213   2   -20.63709851 -11.78439915  9.01165935 
      214   1   -19.15269862 -10.31409926  10.45769924 
      215   2   -20.60999851 -8.83202936  11.90399914 
      216   2   -17.70769872 -29.54689787 -6.13432956 
      217   3   -16.22069883 -28.08559797 -4.59223967 
      218   2   -17.71029872 -26.61319808 -3.06071978 
      219   3   -16.22899883 -25.13239819 -1.53046989 
      220   2   -17.70979872 -23.64499829 -0.00302698 
      221   3   -16.23199883 -22.16029840  1.52801989 
      222   2   -17.70599872 -20.66939851  3.05798978 
      223   3   -16.22939883 -19.18719862  4.59354967 
      224   2   -17.69789872 -17.69789872  6.13023956 
      225   1   -16.21989883 -16.21989883  7.56960945 
      226   2   -17.68479872 -14.73379894  9.01136935 
      227   1   -16.20519883 -13.25869904  10.45559925 
      228   2   -17.66619873 -11.77659915  11.90159914 
      229   2   -14.75629894 -29.60079786 -3.06173978 
      230   3   -13.27349904 -28.11999797 -1.53038989 
      231   2   -14.75259894 -26.62829808 -0.00285457 
      232   3   -13.27809904 -25.13669819  1.52826989 
      233   2   -14.74859894 -23.63949830  3.05812978 
      234   3   -13.27569904 -22.14969840  4.59240967 
      235   2   -14.74259894 -20.65629851  6.12954956 
      236   1   -13.26869904 -19.17319861  7.56946945 
      237   2   -14.73379894 -17.68479872  9.01136935 
      238   1   -13.25869904 -16.20519883  10.45559925 
      239   2   -14.72059894 -14.72059894  11.90039914 
      240   2   -11.79849915 -29.62289786 -0.00229037 
      241   3   -10.32489925 -28.12259797  1.52808989 
      242   2   -11.79299915 -26.61679808  3.05728978 
      243   3   -10.32439926 -25.11659818  4.59149967 
      244   2   -11.78849915 -23.61709829  6.12902956 
      245   1   -10.31949926 -22.12799841  7.56949945 
      246   2   -11.78439915 -20.63709851  9.01165935 
      247   1   -10.31409926 -19.15269862  10.45769924 
      248   2   -11.77659915 -17.66619873  11.90159914 
      249   2   -8.83798936 -29.60239786  3.05850978 
      250   3   -7.37483947 -28.08969797  4.59269967 
      251   2   -8.83639936 -26.58109808  6.13063955 
      252   1   -7.37128947 -25.08339819  7.57114945 
      253   2   -8.83624936 -23.58849830  9.01401935 
      254   1   -7.36927947 -22.09849841  10.45989925 
      255   2   -8.83202936 -20.60999851  11.90399914 
      256   2   -5.88355958 -29.54729787  6.13700956 
      257   1   -4.42261968 -28.03919798  7.57617945 
      258   2   -5.88586957 -26.53799808  9.01921935 
      259   1   -4.42279968 -25.04279819  10.46409925 
      260   2   -5.88669958 -23.55209830  11.90869914 
      261   2   -2.93598979 -29.48489787  9.03179935 
      262   1   -1.47468989 -27.98409798  10.47529924 
      263   2   -2.93932979 -26.48909809  11.91859914 
      264   1   -27.98739798 -16.20359883 -10.47179925 
      265   2   -29.48949787 -14.74559894 -9.02850935 
      266   1   -28.03879798 -13.26379904 -7.57476946 
      267   2   -29.54949787 -11.80389915 -6.13704956 
      268   3   -28.08939797 -10.31729925 -4.59365967 
      269   2   -29.60399787 -8.85325936 -3.06184978 
      270   3   -28.12319797 -7.37121947 -1.53003989 
      271   2   -29.62369786 -5.89695958 -0.00062107 
      272   3   -28.12179797 -4.42525968  1.52966989 
      273   2   -29.60249786 -2.94129979  3.06115978 
      274   3   -28.09009797 -1.47766989  4.59391967 
      275   2   -29.54879787  0.01154580  6.13818956 
      276   1   -28.04009797  1.47251989  7.57684945 
      277   2   -29.48669787  2.95748978  9.03283935 
      278   1   -27.98549798  4.41876968  10.47639925 
      279   2   -26.49999809 -20.62189851 -11.91529914 
      280   1   -25.04459819 -19.15029862 -10.46189924 
      281   2   -26.54169808 -17.69349872 -9.01721935 
      282   1   -25.08089819 -16.21639883 -7.57062945 
      283   2   -26.58179808 -14.75389893 -6.13274956 
      284   3   -25.11379819 -13.27129904 -4.59441967 
      285   2   -26.61749808 -11.80469915 -3.06209978 
      286   3   -25.13749819 -10.32499925 -1.53084989 
      287   2   -26.63169808 -8.84911936 -0.00181975 
      288   3   -25.13769818 -7.37615947  1.52866989 
      289   2   -26.61669808 -5.89363958  3.05951978 
      290   3   -25.11629819 -4.42642968  4.59336967 
      291   2   -26.58199808 -2.94008979  6.13204956 
      292   1   -25.08309819 -1.47589990  7.57171945 
      293   2   -26.53879809  0.00799969  9.01970935 
      294   1   -25.04409819  1.47129990  10.46469924 
      295   2   -26.49109809  2.95322979  11.91979914 
      296   2   -23.56249830 -23.56249830 -11.91049914 
      297   1   -22.09739840 -22.09739840 -10.46019925 
      298   2   -23.59209830 -20.64209851 -9.01366935 
      299   1   -22.12389840 -19.16859861 -7.57052945 
      300   2   -23.61839830 -17.70509872 -6.13284956 
      301   3   -22.14609840 -16.22649883 -4.59644967 
      302   2   -23.64009829 -14.75709894 -3.06434978 
      303   3   -22.16139840 -13.27879904 -1.53345989 
      304   2   -23.65049829 -11.80369915 -0.00296463 
      305   3   -22.16379840 -10.32899926  1.52828989 
      306   2   -23.64129829 -8.84688936  3.05839978 
      307   3   -22.14999840 -7.37674947  4.59313967 
      308   2   -23.61839830 -5.89273957  6.13147956 
      309   1   -22.12749840 -4.42539968  7.57121945 
      310   2   -23.58829830 -2.94237979  9.01496935 
      311   1   -22.09789840 -1.47672989  10.46069925 
      312   2   -23.55279830  0.00531809  11.90889914 
      313   2   -20.62189851 -26.49999809 -11.91529914 
      314   1   -19.15029862 -25.04459819 -10.46189924 
      315   2   -20.64209851 -23.59209830 -9.01366935 
      316   1   -19.16859861 -22.12389840 -7.57052945 
      317   2   -20.65929851 -20.65929851 -6.13302956 
      318   3   -19.18319861 -19.18319861 -4.59784967 
      319   2   -20.67199851 -17.71159872 -3.06576978 
      320   3   -19.19349861 -16.23279883 -1.53490989 
      321   2   -20.67839851 -14.75689893 -0.00404574 
      322   3   -19.19699861 -13.28149904  1.52848989 
      323   2   -20.67409851 -11.80019915  3.05949978 
      324   3   -19.18919861 -10.32689925  4.59425967 
      325   2   -20.65859851 -8.84393936  6.13168956 
      326   1   -19.17369862 -7.37327947  7.57216945 
      327   2   -20.63749851 -5.89109957  9.01488935 
      328   1   -19.15089862 -4.42320968  10.45989925 
      329   2   -20.60969851 -2.94247979  11.90499914 
      330   1   -16.20359883 -27.98739798 -10.47179925 
      331   2   -17.69349872 -26.54169808 -9.01721935 
      332   1   -16.21639883 -25.08089819 -7.57062945 
      333   2   -17.70509872 -23.61839830 -6.13284956 
      334   3   -16.22649883 -22.14609840 -4.59644967 
      335   2   -17.71159872 -20.67199851 -3.06576978 
      336   3   -16.23279883 -19.19349861 -1.53490989 
      337   2   -17.71389872 -17.71389872 -0.00486330 
      338   3   -16.23599883 -16.23599883  1.52778989 
      339   2   -17.71149872 -14.75439894  3.06071978 
      340   3   -16.23199883 -13.27789904  4.59543967 
      341   2   -17.70189872 -11.79419915  6.13240956 
      342   1   -16.22119883 -10.31999925  7.57123945 
      343   2   -17.68669872 -8.83935936  9.01466935 
      344   1   -16.20439883 -7.36849947  10.45869925 
      345   2   -17.66539873 -5.88854957  11.90439914 
      346   2   -14.74559894 -29.48949787 -9.02850935 
      347   1   -13.26379904 -28.03879798 -7.57476946 
      348   2   -14.75389893 -26.58179808 -6.13274956 
      349   3   -13.27129904 -25.11379819 -4.59441967 
      350   2   -14.75709894 -23.64009829 -3.06434978 
      351   3   -13.27879904 -22.16139840 -1.53345989 
      352   2   -14.75689893 -20.67839851 -0.00404574 
      353   3   -13.28149904 -19.19699861  1.52848989 
      354   2   -14.75439894 -17.71149872  3.06071978 
      355   3   -13.27789904 -16.23199883  4.59543967 
      356   2   -14.74689893 -14.74689893  6.13281956 
      357   1   -13.26859904 -13.26859904  7.56985945 
      358   2   -14.73609894 -11.78649915  9.01210935 
      359   1   -13.25779904 -10.31279926  10.45619924 
      360   2   -14.72049893 -8.83277936  11.90279914 
      361   2   -11.80389915 -29.54949787 -6.13704956 
      362   3   -10.31729925 -28.08939797 -4.59365967 
      363   2   -11.80469915 -26.61749808 -3.06209978 
      364   3   -10.32499925 -25.13749819 -1.53084989 
      365   2   -11.80369915 -23.65049829 -0.00296463 
      366   3   -10.32899926 -22.16379840  1.52828989 
      367   2   -11.80019915 -20.67409851  3.05949978 
      368   3   -10.32689925 -19.18919861  4.59425967 
      369   2   -11.79419915 -17.70189872  6.13240956 
      370   1   -10.31999925 -16.22119883  7.57123945 
      371   2   -11.78649915 -14.73609894  9.01210935 
      372   1   -10.31279926 -13.25779904  10.45619924 
      373   2   -11.77709915 -11.77709915  11.90149914 
      374   2   -8.85325936 -29.60399787 -3.06184978 
      375   3   -7.37121947 -28.12319797 -1.53003989 
      376   2   -8.84911936 -26.63169808 -0.00181975 
      377   3   -7.37615947 -25.13769818  1.52866989 
      378   2   -8.84688936 -23.64129829  3.05839978 
      379   3   -7.37674947 -22.14999840  4.59313967 
      380   2   -8.84393936 -20.65859851  6.13168956 
      381   1   -7.37327947 -19.17369862  7.57216945 
      382   2   -8.83935936 -17.68669872  9.01466935 
      383   1   -7.36849947 -16.20439883  10.45869925 
      384   2   -8.83277936 -14.72049893  11.90279914 
      385   2   -5.89695958 -29.62369786 -0.00062107 
      386   3   -4.42525968 -28.12179797  1.52966989 
      387   2   -5.89363958 -26.61669808  3.05951978 
      388   3   -4.42642968 -25.11629819  4.59336967 
      389   2   -5.89273957 -23.61839830  6.13147956 
      390   1   -4.42539968 -22.12749840  7.57121945 
      391   2   -5.89109957 -20.63749851  9.01488935 
      392   1   -4.42320968 -19.15089862  10.45989925 
      393   2   -5.88854957 -17.66539873  11.90439914 
      394   2   -2.94129979 -29.60249786  3.06115978 
      395   3   -1.47766989 -28.09009797  4.59391967 
      396   2   -2.94008979 -26.58199808  6.13204956 
      397   1   -1.47589990 -25.08309819  7.57171945 
      398   2   -2.94237979 -23.58829830  9.01496935 
      399   1   -1.47672989 -22.09789840  10.46069925 
      400   2   -2.94247979 -20.60969851  11.90499914 
      401   2    0.01154580 -29.54879787  6.13818956 
      402   1    1.47251989 -28.04009797  7.57684945 
      403   2    0.00799969 -26.53879809  9.01970935 
      404   1    1.47129990 -25.04409819  10.46469924 
      405   2    0.00531808 -23.55279830  11.90889914 
      406   2    2.95748978 -29.48669787  9.03283935 
      407   1    4.41876968 -27.98549798  10.47639925 
      408   2    2.95322979 -26.49109809  11.91979914 
      409   1   -27.98579798 -10.31059926 -10.47509924 
      410   2   -29.48759787 -8.85048936 -9.03253935 
      411   1   -28.03959798 -7.36711947 -7.57730945 
      412   2   -29.54969786 -5.90673958 -6.13918956 
      413   3   -28.09129797 -4.41896968 -4.59447967 
      414   2   -29.60379786 -2.95491979 -3.06180978 
      415   3   -28.12309797 -1.47239990 -1.52929989 
      416   2   -29.62459786 -0.00000000 -0.00000000 
      417   3   -28.12309797  1.47239990  1.52929989 
      418   2   -29.60379786  2.95491979  3.06180978 
      419   3   -28.09129797  4.41896968  4.59447967 
      420   2   -29.54969786  5.90673958  6.13918956 
      421   1   -28.03959798  7.36711947  7.57730945 
      422   2   -29.48759787  8.85048936  9.03253935 
      423   1   -27.98579798  10.31059926  10.47509924 
      424   2   -26.49709809 -14.73209894 -11.91669914 
      425   1   -25.04429819 -13.25579904 -10.46339925 
      426   2   -26.54029808 -11.79599915 -9.01900935 
      427   1   -25.08159819 -10.31619925 -7.57275945 
      428   2   -26.58309808 -8.85386936 -6.13424956 
      429   3   -25.11719819 -7.37083947 -4.59429967 
      430   2   -26.62009808 -5.90382957 -3.06187978 
      431   3   -25.13919818 -4.42374968 -1.53096989 
      432   2   -26.63199808 -2.94940979 -0.00057507 
      433   3   -25.13739819 -1.47633990  1.52942989 
      434   2   -26.61859808  0.00450331  3.05965978 
      435   3   -25.11809818  1.47176989  4.59380967 
      436   2   -26.58319808  2.95720979  6.13348956 
      437   1   -25.08369819  4.42097968  7.57311945 
      438   2   -26.53939808  5.90254957  9.02143935 
      439   1   -25.04349819  7.36424947  10.46619924 
      440   2   -26.49349809  8.84343936  11.91979914 
      441   2   -23.55969830 -17.67519872 -11.90759914 
      442   1   -22.09809841 -16.20259883 -10.46019925 
      443   2   -23.59109830 -14.74299894 -9.01496935 
      444   1   -22.12559840 -13.26579904 -7.57247945 
      445   2   -23.61939829 -11.80119915 -6.13367956 
      446   3   -22.14939840 -10.32209926 -4.59636967 
      447   2   -23.64359829 -8.85412936 -3.06291978 
      448   3   -22.16539840 -7.37588947 -1.53205989 
      449   2   -23.65229829 -5.90068957 -0.00152523 
      450   3   -22.16379840 -4.42735968  1.52990989 
      451   2   -23.64219829 -2.94700979  3.06078978 
      452   3   -22.15059840 -1.47698989  4.59461967 
      453   2   -23.61989830  0.00562761  6.13254956 
      454   1   -22.12809840  1.47234989  7.57249945 
      455   2   -23.58999830  2.95376979  9.01644935 
      456   1   -22.09859840  4.41762968  10.46249925 
      457   2   -23.55399830  5.89716958  11.91129914 
      458   2   -20.61809851 -20.61809851 -11.90539914 
      459   1   -19.15029862 -19.15029862 -10.46029925 
      460   2   -20.64059851 -17.69129872 -9.01562935 
      461   1   -19.17059862 -16.21739883 -7.57469946 
      462   2   -20.65989851 -14.75209894 -6.13613956 
      463   3   -19.18649862 -13.27419904 -4.60053967 
      464   2   -20.67519851 -11.80519915 -3.06656978 
      465   3   -19.19819861 -10.32869926 -1.53432989 
      466   2   -20.68189851 -8.85343936 -0.00293293 
      467   3   -19.19859861 -7.37892947  1.52901989 
      468   2   -20.67439851 -5.89928958  3.06182978 
      469   3   -19.18929861 -4.42779968  4.59700967 
      470   2   -20.66019851 -2.94608979  6.13364956 
      471   1   -19.17369862 -1.47681989  7.57341946 
      472   2   -20.63849851  0.00406442  9.01597935 
      473   1   -19.15169862  1.47087989  10.46109925 
      474   2   -20.61149851  2.94997979  11.90649914 
      475   2   -17.67519872 -23.55969830 -11.90759914 
      476   1   -16.20259883 -22.09809841 -10.46019925 
      477   2   -17.69129872 -20.64059851 -9.01562935 
      478   1   -16.21739883 -19.17059862 -7.57469946 
      479   2   -17.70399872 -17.70399872 -6.13864956 
      480   3   -16.22839883 -16.22839883 -4.60364967 
      481   2   -17.71219872 -14.75709894 -3.07049978 
      482   3   -16.23599883 -13.28089904 -1.53721989 
      483   2   -17.71759872 -11.80649915 -0.00437847 
      484   3   -16.23859883 -10.33109925  1.52864989 
      485   2   -17.71359872 -8.85166936  3.06137978 
      486   3   -16.23259883 -7.37758947  4.59628967 
      487   2   -17.70309872 -5.89716958  6.13538956 
      488   1   -16.22089883 -4.42581968  7.57381945 
      489   2   -17.68719873 -2.94556979  9.01600935 
      490   1   -16.20379883 -1.47678989  10.46019925 
      491   2   -17.66659872  0.00218057  11.90469914 
      492   2   -14.73209894 -26.49709809 -11.91669914 
      493   1   -13.25579904 -25.04429819 -10.46339925 
      494   2   -14.74299894 -23.59109830 -9.01496935 
      495   1   -13.26579904 -22.12559840 -7.57247945 
      496   2   -14.75209894 -20.65989851 -6.13613956 
      497   3   -13.27419904 -19.18649862 -4.60053967 
      498   2   -14.75709894 -17.71219872 -3.07049978 
      499   3   -13.28089904 -16.23599883 -1.53721989 
      500   2   -14.75949894 -14.75949894 -0.00521939 
      501   3   -13.28369904 -13.28369904  1.52892989 
      502   2   -14.75729893 -11.80389915  3.06171978 
      503   3   -13.27839904 -10.32699925  4.59435967 
      504   2   -14.74809893 -8.84670936  6.13399956 
      505   1   -13.26849904 -7.37242947  7.57179945 
      506   2   -14.73669894 -5.89365957  9.01547935 
      507   1   -13.25639904 -4.42290968  10.45939924 
      508   2   -14.72109894 -2.94457979  11.90449914 
      509   1   -10.31059926 -27.98579798 -10.47509924 
      510   2   -11.79599915 -26.54029808 -9.01900935 
      511   1   -10.31619925 -25.08159819 -7.57275945 
      512   2   -11.80119915 -23.61939829 -6.13367956 
      513   3   -10.32209926 -22.14939840 -4.59636967 
      514   2   -11.80519915 -20.67519851 -3.06656978 
      515   3   -10.32869926 -19.19819861 -1.53432989 
      516   2   -11.80649915 -17.71759872 -0.00437847 
      517   3   -10.33109925 -16.23859883  1.52864989 
      518   2   -11.80389915 -14.75729893  3.06171978 
      519   3   -10.32699925 -13.27839904  4.59435967 
      520   2   -11.79569915 -11.79569915  6.13137956 
      521   1   -10.31929925 -10.31929925  7.56955945 
      522   2   -11.78679915 -8.84066936  9.01354935 
      523   1   -10.31069926 -7.36700947  10.45799925 
      524   2   -11.77659915 -5.89012958  11.90479914 
      525   2   -8.85048936 -29.48759787 -9.03253935 
      526   1   -7.36711947 -28.03959798 -7.57730945 
      527   2   -8.85386936 -26.58309808 -6.13424956 
      528   3   -7.37083947 -25.11719819 -4.59429967 
      529   2   -8.85412936 -23.64359829 -3.06291978 
      530   3   -7.37588947 -22.16539840 -1.53205989 
      531   2   -8.85343936 -20.68189851 -0.00293293 
      532   3   -7.37892947 -19.19859861  1.52901989 
      533   2   -8.85166936 -17.71359872  3.06137978 
      534   3   -7.37758947 -16.23259883  4.59628967 
      535   2   -8.84670936 -14.74809893  6.13399956 
      536   1   -7.37242947 -13.26849904  7.57179945 
      537   2   -8.84066936 -11.78679915  9.01354935 
      538   1   -7.36700947 -10.31069926  10.45799925 
      539   2   -8.83288936 -8.83288936  11.90429914 
      540   2   -5.90673958 -29.54969786 -6.13918956 
      541   3   -4.41896968 -28.09129797 -4.59447967 
      542   2   -5.90382957 -26.62009808 -3.06187978 