LAMMPS configuration data file

  4461 atoms

  5 atom types

  -44.975398  44.975398  xlo xhi
  -44.975398  44.975398  ylo yhi
  -44.975398  44.975398  zlo zhi

 Masses

  1   32.065
  2   112.411
  3   78.960
  4   1.000
  5   1.000

 Atoms

        1   1   -17.63509873 -14.69789894  14.69789894 
        2   1   -14.69789894 -17.63509873  14.69789894 
        3   2   -16.15289883 -16.15289883  16.15289883 
        4   1   -14.69789894 -14.69789894  17.63509873 
        5   1   -23.49649830 -14.69989894  2.93876979 
        6   1   -23.50039830 -11.76519915  5.88246958 
        7   1   -23.50259830 -8.82658936  8.82658936 
        8   1   -23.50039830 -5.88246958  11.76519915 
        9   1   -23.49649830 -2.93876979  14.69989894 
       10   1   -20.56899852 -20.56899852 -0.00190768 
       11   2   -22.02889841 -19.09789862  1.46205990 
       12   1   -20.57709851 -17.64449873  2.93832979 
       13   2   -22.03169841 -16.16709883  4.40123968 
       14   1   -20.58409851 -14.71429894  5.88464958 
       15   2   -22.03499841 -13.23159904  7.34597947 
       16   1   -20.58859851 -11.77649915  8.83285936 
       17   2   -22.03679841 -10.29129926  10.29129926 
       18   1   -20.58859851 -8.83285936  11.77649915 
       19   2   -22.03499841 -7.34597947  13.23159904 
       20   1   -20.58409851 -5.88464958  14.71429894 
       21   2   -22.03169841 -4.40123968  16.16709883 
       22   1   -20.57709851 -2.93832979  17.64449873 
       23   2   -22.02889841 -1.46205990  19.09789862 
       24   1   -20.56899852  0.00190768  20.56899852 
       25   2   -19.09789862 -22.02889841  1.46205990 
       26   1   -17.64449873 -20.57709851  2.93832979 
       27   2   -19.10629862 -19.10629862  4.40099968 
       28   1   -17.65669872 -17.65669872  5.88509958 
       29   2   -19.11349862 -16.17829883  7.34720947 
       30   1   -17.66729873 -14.72819893  8.83760936 
       31   2   -19.11619862 -13.23889904  10.29499926 
       32   1   -17.66679873 -11.78269915  11.78269915 
       33   2   -19.11619862 -10.29499926  13.23889904 
       34   1   -17.66729873 -8.83760936  14.72819893 
       35   2   -19.11349862 -7.34720947  16.17829883 
       36   1   -17.65669872 -5.88509958  17.65669872 
       37   2   -19.10629862 -4.40099968  19.10629862 
       38   1   -17.64449873 -2.93832979  20.57709851 
       39   2   -19.09789862 -1.46205990  22.02889841 
       40   1   -14.69989894 -23.49649830  2.93876979 
       41   2   -16.16709883 -22.03169841  4.40123968 
       42   1   -14.71429894 -20.58409851  5.88464958 
       43   2   -16.17829883 -19.11349862  7.34720947 
       44   1   -14.72819893 -17.66729873  8.83760936 
       45   2   -16.18429883 -16.18429883  10.29619925 
       46   1   -14.73329894 -14.73329894  11.78599915 
       47   2   -16.18389883 -13.24069905  13.24069905 
       48   1   -14.73329894 -11.78599915  14.73329894 
       49   2   -16.18429883 -10.29619925  16.18429883 
       50   1   -14.72819893 -8.83760936  17.66729873 
       51   2   -16.17829883 -7.34720947  19.11349862 
       52   1   -14.71429894 -5.88464958  20.58409851 
       53   2   -16.16709883 -4.40123968  22.03169841 
       54   1   -14.69989894 -2.93876979  23.49649830 
       55   1   -11.76519915 -23.50039830  5.88246958 
       56   2   -13.23159904 -22.03499841  7.34597947 
       57   1   -11.77649915 -20.58859851  8.83285936 
       58   2   -13.23889904 -19.11619862  10.29499926 
       59   1   -11.78269915 -17.66679873  11.78269915 
       60   2   -13.24069905 -16.18389883  13.24069905 
       61   1   -11.78599915 -14.73329894  14.73329894 
       62   2   -13.24069905 -13.24069905  16.18389883 
       63   1   -11.78269915 -11.78269915  17.66679873 
       64   2   -13.23889904 -10.29499926  19.11619862 
       65   1   -11.77649915 -8.83285936  20.58859851 
       66   2   -13.23159904 -7.34597947  22.03499841 
       67   1   -11.76519915 -5.88246958  23.50039830 
       68   1   -8.82658936 -23.50259830  8.82658936 
       69   2   -10.29129926 -22.03679841  10.29129926 
       70   1   -8.83285936 -20.58859851  11.77649915 
       71   2   -10.29499926 -19.11619862  13.23889904 
       72   1   -8.83760936 -17.66729873  14.72819893 
       73   2   -10.29619925 -16.18429883  16.18429883 
       74   1   -8.83760936 -14.72819893  17.66729873 
       75   2   -10.29499926 -13.23889904  19.11619862 
       76   1   -8.83285936 -11.77649915  20.58859851 
       77   2   -10.29129926 -10.29129926  22.03679841 
       78   1   -8.82658936 -8.82658936  23.50259830 
       79   1   -5.88246958 -23.50039830  11.76519915 
       80   2   -7.34597947 -22.03499841  13.23159904 
       81   1   -5.88464958 -20.58409851  14.71429894 
       82   2   -7.34720947 -19.11349862  16.17829883 
       83   1   -5.88509958 -17.65669872  17.65669872 
       84   2   -7.34720947 -16.17829883  19.11349862 
       85   1   -5.88464958 -14.71429894  20.58409851 
       86   2   -7.34597947 -13.23159904  22.03499841 
       87   1   -5.88246958 -11.76519915  23.50039830 
       88   1   -2.93876979 -23.49649830  14.69989894 
       89   2   -4.40123968 -22.03169841  16.16709883 
       90   1   -2.93832979 -20.57709851  17.64449873 
       91   2   -4.40099968 -19.10629862  19.10629862 
       92   1   -2.93832979 -17.64449873  20.57709851 
       93   2   -4.40123968 -16.16709883  22.03169841 
       94   1   -2.93876979 -14.69989894  23.49649830 
       95   2   -1.46205990 -22.02889841  19.09789862 
       96   1    0.00190768 -20.56899852  20.56899852 
       97   2   -1.46205990 -19.09789862  22.02889841 
       98   1   -23.50609830 -14.70789894 -2.94415979 
       99   1   -23.51199830 -11.77489915 -0.00386930 
      100   2   -24.96119820 -10.29499926  1.46235990 
      101   1   -23.51689830 -8.83608936  2.94320979 
      102   2   -24.96309820 -7.35402947  4.40844968 
      103   1   -23.52019830 -5.89218957  5.89218957 
      104   2   -24.96309820 -4.40844968  7.35402947 
      105   1   -23.51689830 -2.94320979  8.83608936 
      106   2   -24.96119820 -1.46235990  10.29499926 
      107   1   -23.51199830  0.00386930  11.77489915 
      108   1   -23.50609830  2.94415979  14.70789894 
      109   1   -20.58699852 -17.65379873 -2.94668979 
      110   2   -22.04709841 -16.18209883 -1.48285989 
      111   1   -20.60049851 -14.73029894 -0.00517330 
      112   2   -22.05299841 -13.24879904  1.45904989 
      113   1   -20.61129851 -11.79519915  2.94420979 
      114   2   -22.05839841 -10.30879926  4.40879968 
      115   1   -20.62119851 -8.85233936  5.90149957 
      116   2   -22.06229841 -7.36165947  7.36165947 
      117   1   -20.62119851 -5.90149957  8.85233936 
      118   2   -22.05839841 -4.40879968  10.30879926 
      119   1   -20.61129851 -2.94420979  11.79519915 
      120   2   -22.05299841 -1.45904989  13.24879904 
      121   1   -20.60049851  0.00517329  14.73029894 
      122   2   -22.04709841  1.48285989  16.18209883 
      123   1   -20.58699852  2.94668979  17.65379873 
      124   1   -17.65379873 -20.58699852 -2.94668979 
      125   2   -19.12119862 -19.12119862 -1.48445989 
      126   1   -17.67259873 -17.67259873 -0.00657459 
      127   2   -19.13239862 -16.19749883  1.45668989 
      128   1   -17.68849872 -14.74889893  2.94356979 
      129   2   -19.14249862 -13.26369904  4.40703968 
      130   1   -17.70549872 -11.81309915  5.90478957 
      131   2   -19.14879862 -10.31769925  7.36496947 
      132   1   -17.70759872 -8.86188936  8.86188936 
      133   2   -19.14879862 -7.36496947  10.31769925 
      134   1   -17.70549872 -5.90478957  11.81309915 
      135   2   -19.14249862 -4.40703968  13.26369904 
      136   1   -17.68849872 -2.94356979  14.74889893 
      137   2   -19.13239862 -1.45668989  16.19749883 
      138   1   -17.67259873  0.00657458  17.67259873 
      139   2   -19.12119862  1.48445989  19.12119862 
      140   1   -17.65379873  2.94668979  20.58699852 
      141   1   -14.70789894 -23.50609830 -2.94415979 
      142   2   -16.18209883 -22.04709841 -1.48285989 
      143   1   -14.73029894 -20.60049851 -0.00517330 
      144   2   -16.19749883 -19.13239862  1.45668989 
      145   1   -14.74889893 -17.68849872  2.94356979 
      146   2   -16.21169883 -16.21169883  4.40661968 
      147   1   -14.77059894 -14.77059894  5.90817957 
      148   2   -16.22759883 -13.28059904  7.36544947 
      149   1   -14.78799893 -11.83609914  8.86745936 
      150   2   -16.22399883 -10.32279925  10.32279925 
      151   1   -14.78799893 -8.86745936  11.83609914 
      152   2   -16.22759883 -7.36544947  13.28059904 
      153   1   -14.77059894 -5.90817957  14.77059894 
      154   2   -16.21169883 -4.40661968  16.21169883 
      155   1   -14.74889893 -2.94356979  17.68849872 
      156   2   -16.19749883 -1.45668989  19.13239862 
      157   1   -14.73029894  0.00517329  20.60049851 
      158   2   -16.18209883  1.48285989  22.04709841 
      159   1   -14.70789894  2.94415979  23.50609830 
      160   1   -11.77489915 -23.51199830 -0.00386930 
      161   2   -13.24879904 -22.05299841  1.45904989 
      162   1   -11.79519915 -20.61129851  2.94420979 
      163   2   -13.26369904 -19.14249862  4.40703968 
      164   1   -11.81309915 -17.70549872  5.90478957 
      165   2   -13.28059904 -16.22759883  7.36544947 
      166   1   -11.83609914 -14.78799893  8.86745936 
      167   2   -13.28659904 -13.28659904  10.32389925 
      168   1   -11.84859915 -11.84859915  11.84859915 
      169   2   -13.28659904 -10.32389925  13.28659904 
      170   1   -11.83609914 -8.86745936  14.78799893 
      171   2   -13.28059904 -7.36544947  16.22759883 
      172   1   -11.81309915 -5.90478957  17.70549872 
      173   2   -13.26369904 -4.40703968  19.14249862 
      174   1   -11.79519915 -2.94420979  20.61129851 
      175   2   -13.24879904 -1.45904989  22.05299841 
      176   1   -11.77489915  0.00386930  23.51199830 
      177   2   -10.29499926 -24.96119820  1.46235990 
      178   1   -8.83608936 -23.51689830  2.94320979 
      179   2   -10.30879926 -22.05839841  4.40879968 
      180   1   -8.85233936 -20.62119851  5.90149957 
      181   2   -10.31769925 -19.14879862  7.36496947 
      182   1   -8.86188936 -17.70759872  8.86188936 
      183   2   -10.32279925 -16.22399883  10.32279925 
      184   1   -8.86745936 -14.78799893  11.83609914 
      185   2   -10.32389925 -13.28659904  13.28659904 
      186   1   -8.86745936 -11.83609914  14.78799893 
      187   2   -10.32279925 -10.32279925  16.22399883 
      188   1   -8.86188936 -8.86188936  17.70759872 
      189   2   -10.31769925 -7.36496947  19.14879862 
      190   1   -8.85233936 -5.90149957  20.62119851 
      191   2   -10.30879926 -4.40879968  22.05839841 
      192   1   -8.83608936 -2.94320979  23.51689830 
      193   2   -10.29499926 -1.46235990  24.96119820 
      194   2   -7.35402947 -24.96309820  4.40844968 
      195   1   -5.89218957 -23.52019830  5.89218957 
      196   2   -7.36165947 -22.06229841  7.36165947 
      197   1   -5.90149957 -20.62119851  8.85233936 
      198   2   -7.36496947 -19.14879862  10.31769925 
      199   1   -5.90478957 -17.70549872  11.81309915 
      200   2   -7.36544947 -16.22759883  13.28059904 
      201   1   -5.90817957 -14.77059894  14.77059894 
      202   2   -7.36544947 -13.28059904  16.22759883 
      203   1   -5.90478957 -11.81309915  17.70549872 
      204   2   -7.36496947 -10.31769925  19.14879862 
      205   1   -5.90149957 -8.85233936  20.62119851 
      206   2   -7.36165947 -7.36165947  22.06229841 
      207   1   -5.89218957 -5.89218957  23.52019830 
      208   2   -7.35402947 -4.40844968  24.96309820 
      209   2   -4.40844968 -24.96309820  7.35402947 
      210   1   -2.94320979 -23.51689830  8.83608936 
      211   2   -4.40879968 -22.05839841  10.30879926 
      212   1   -2.94420979 -20.61129851  11.79519915 
      213   2   -4.40703968 -19.14249862  13.26369904 
      214   1   -2.94356979 -17.68849872  14.74889893 
      215   2   -4.40661968 -16.21169883  16.21169883 
      216   1   -2.94356979 -14.74889893  17.68849872 
      217   2   -4.40703968 -13.26369904  19.14249862 
      218   1   -2.94420979 -11.79519915  20.61129851 
      219   2   -4.40879968 -10.30879926  22.05839841 
      220   1   -2.94320979 -8.83608936  23.51689830 
      221   2   -4.40844968 -7.35402947  24.96309820 
      222   2   -1.46235990 -24.96119820  10.29499926 
      223   1    0.00386930 -23.51199830  11.77489915 
      224   2   -1.45904989 -22.05299841  13.24879904 
      225   1    0.00517329 -20.60049851  14.73029894 
      226   2   -1.45668989 -19.13239862  16.19749883 
      227   1    0.00657458 -17.67259873  17.67259873 
      228   2   -1.45668989 -16.19749883  19.13239862 
      229   1    0.00517329 -14.73029894  20.60049851 
      230   2   -1.45904989 -13.24879904  22.05299841 
      231   1    0.00386930 -11.77489915  23.51199830 
      232   2   -1.46235990 -10.29499926  24.96119820 
      233   1    2.94415979 -23.50609830  14.70789894 
      234   2    1.48285989 -22.04709841  16.18209883 
      235   1    2.94668979 -20.58699852  17.65379873 
      236   2    1.48445989 -19.12119862  19.12119862 
      237   1    2.94668979 -17.65379873  20.58699852 
      238   2    1.48285989 -16.18209883  22.04709841 
      239   1    2.94415979 -14.70789894  23.50609830 
      240   1   -23.51599830 -11.77739915 -5.89231958 
      241   2   -24.96769820 -10.30199925 -4.42308968 
      242   1   -23.52269830 -8.84058936 -2.95112979 
      243   2   -24.96989820 -7.36212947 -1.48030989 
      244   1   -23.52869830 -5.89728958 -0.00305480 
      245   2   -24.97209820 -4.41708968  1.46766989 
      246   1   -23.53329830 -2.94868979  2.94868979 
      247   2   -24.97209820 -1.46766989  4.41708968 
      248   1   -23.52869830  0.00305479  5.89728958 
      249   2   -24.96989820  1.48030989  7.36212947 
      250   1   -23.52269830  2.95112979  8.84058936 
      251   2   -24.96769820  4.42308968  10.30199925 
      252   1   -23.51599830  5.89231958  11.77739915 
      253   1   -20.60199851 -14.72909894 -5.89789958 
      254   2   -22.06339841 -13.25819904 -4.43236968 
      255   1   -20.62119851 -11.80359915 -2.95810978 
      256   2   -22.07219841 -10.32219926 -1.48954989 
      257   1   -20.63629851 -8.86259936 -0.00748103 
      258   2   -22.07999841 -7.37628947  1.46381990 
      259   1   -20.65069851 -5.91131957  2.95450979 
      260   2   -22.08599840 -4.42217968  4.42217968 
      261   1   -20.65069851 -2.95450979  5.91131957 
      262   2   -22.07999841 -1.46381990  7.37628947 
      263   1   -20.63629851  0.00748102  8.86259936 
      264   2   -22.07219841  1.48954989  10.32219926 
      265   1   -20.62119851  2.95810978  11.80359915 
      266   2   -22.06339841  4.43236968  13.25819904 
      267   1   -20.60199851  5.89789958  14.72909894 
      268   1   -17.67259873 -17.67259873 -5.90020958 
      269   2   -19.14349862 -16.20769883 -4.43784968 
      270   1   -17.69879872 -14.75879893 -2.96370979 
      271   2   -19.16479862 -13.28659904 -1.49834989 
      272   1   -17.73019872 -11.83799914 -0.01365610 
      273   2   -19.18089861 -10.34519925  1.45529989 
      274   1   -17.76449872 -8.88813936  2.96133979 
      275   2   -19.19749862 -7.38858947  4.42641968 
      276   1   -17.76979872 -5.92974957  5.92974957 
      277   2   -19.19749862 -4.42641968  7.38858947 
      278   1   -17.76449872 -2.96133979  8.88813936 
      279   2   -19.18089861 -1.45529989  10.34519925 
      280   1   -17.73019872  0.01365610  11.83799914 
      281   2   -19.16479862  1.49834989  13.28659904 
      282   1   -17.69879872  2.96370979  14.75879893 
      283   2   -19.14349862  4.43784968  16.20769883 
      284   1   -17.67259873  5.90020958  17.67259873 
      285   1   -14.72909894 -20.60199851 -5.89789958 
      286   2   -16.20769883 -19.14349862 -4.43784968 
      287   1   -14.75879893 -17.69879872 -2.96370979 
      288   2   -16.23369883 -16.23369883 -1.50119989 
      289   1   -14.79249893 -14.79249893 -0.01554440 
      290   2   -16.25379883 -13.30689904  1.45170989 
      291   1   -14.83139893 -11.87079915  2.97574978 
      292   2   -16.28179882 -10.35889925  4.42206968 
      293   1   -14.85389893 -8.91626936  5.93748957 
      294   2   -16.28219882 -7.39559947  7.39559947 
      295   1   -14.85389893 -5.93748957  8.91626936 
      296   2   -16.28179882 -4.42206968  10.35889925 
      297   1   -14.83139893 -2.97574978  11.87079915 
      298   2   -16.25379883 -1.45170989  13.30689904 
      299   1   -14.79249893  0.01554440  14.79249893 
      300   2   -16.23369883  1.50119989  16.23369883 
      301   1   -14.75879893  2.96370979  17.69879872 
      302   2   -16.20769883  4.43784968  19.14349862 
      303   1   -14.72909894  5.89789958  20.60199851 
      304   1   -11.77739915 -23.51599830 -5.89231958 
      305   2   -13.25819904 -22.06339841 -4.43236968 
      306   1   -11.80359915 -20.62119851 -2.95810978 
      307   2   -13.28659904 -19.16479862 -1.49834989 
      308   1   -11.83799914 -17.73019872 -0.01365610 
      309   2   -13.30689904 -16.25379883  1.45170989 
      310   1   -11.87079915 -14.83139893  2.97574978 
      311   2   -13.33439904 -13.33439904  4.42416968 
      312   1   -11.89909914 -11.89909914  5.93288957 
      313   2   -13.37559903 -10.40719925  7.36649947 
      314   3   -11.91339914 -8.91663936  8.91663936 
      315   2   -13.37559903 -7.36649947  10.40719925 
      316   1   -11.89909914 -5.93288957  11.89909914 
      317   2   -13.33439904 -4.42416968  13.33439904 
      318   1   -11.87079915 -2.97574978  14.83139893 
      319   2   -13.30689904 -1.45170989  16.25379883 
      320   1   -11.83799914  0.01365610  17.73019872 
      321   2   -13.28659904  1.49834989  19.16479862 
      322   1   -11.80359915  2.95810978  20.62119851 
      323   2   -13.25819904  4.43236968  22.06339841 
      324   1   -11.77739915  5.89231958  23.51599830 
      325   2   -10.30199925 -24.96769820 -4.42308968 
      326   1   -8.84058936 -23.52269830 -2.95112979 
      327   2   -10.32219926 -22.07219841 -1.48954989 
      328   1   -8.86259936 -20.63629851 -0.00748103 
      329   2   -10.34519925 -19.18089861  1.45529989 
      330   1   -8.88813936 -17.76449872  2.96133979 
      331   2   -10.35889925 -16.28179882  4.42206968 
      332   1   -8.91626936 -14.85389893  5.93748957 
      333   2   -10.40719925 -13.37559903  7.36649947 
      334   3   -8.91663936 -11.91339914  8.91663936 
      335   2   -10.40939925 -10.40939925  10.40939925 
      336   3   -8.91663936 -8.91663936  11.91339914 
      337   2   -10.40719925 -7.36649947  13.37559903 
      338   1   -8.91626936 -5.93748957  14.85389893 
      339   2   -10.35889925 -4.42206968  16.28179882 
      340   1   -8.88813936 -2.96133979  17.76449872 
      341   2   -10.34519925 -1.45529989  19.18089861 
      342   1   -8.86259936  0.00748102  20.63629851 
      343   2   -10.32219926  1.48954989  22.07219841 
      344   1   -8.84058936  2.95112979  23.52269830 
      345   2   -10.30199925  4.42308968  24.96769820 
      346   2   -7.36212947 -24.96989820 -1.48030989 
      347   1   -5.89728958 -23.52869830 -0.00305480 
      348   2   -7.37628947 -22.07999841  1.46381990 
      349   1   -5.91131957 -20.65069851  2.95450979 
      350   2   -7.38858947 -19.19749862  4.42641968 
      351   1   -5.92974957 -17.76979872  5.92974957 
      352   2   -7.39559947 -16.28219882  7.39559947 
      353   1   -5.93748957 -14.85389893  8.91626936 
      354   2   -7.36649947 -13.37559903  10.40719925 
      355   1   -5.93288957 -11.89909914  11.89909914 
      356   2   -7.36649947 -10.40719925  13.37559903 
      357   1   -5.93748957 -8.91626936  14.85389893 
      358   2   -7.39559947 -7.39559947  16.28219882 
      359   1   -5.92974957 -5.92974957  17.76979872 
      360   2   -7.38858947 -4.42641968  19.19749862 
      361   1   -5.91131957 -2.95450979  20.65069851 
      362   2   -7.37628947 -1.46381990  22.07999841 
      363   1   -5.89728958  0.00305479  23.52869830 
      364   2   -7.36212947  1.48030989  24.96989820 
      365   2   -4.41708968 -24.97209820  1.46766989 
      366   1   -2.94868979 -23.53329830  2.94868979 
      367   2   -4.42217968 -22.08599840  4.42217968 
      368   1   -2.95450979 -20.65069851  5.91131957 
      369   2   -4.42641968 -19.19749862  7.38858947 
      370   1   -2.96133979 -17.76449872  8.88813936 
      371   2   -4.42206968 -16.28179882  10.35889925 
      372   1   -2.97574978 -14.83139893  11.87079915 
      373   2   -4.42416968 -13.33439904  13.33439904 
      374   1   -2.97574978 -11.87079915  14.83139893 
      375   2   -4.42206968 -10.35889925  16.28179882 
      376   1   -2.96133979 -8.88813936  17.76449872 
      377   2   -4.42641968 -7.38858947  19.19749862 
      378   1   -2.95450979 -5.91131957  20.65069851 
      379   2   -4.42217968 -4.42217968  22.08599840 
      380   1   -2.94868979 -2.94868979  23.53329830 
      381   2   -4.41708968 -1.46766989  24.97209820 
      382   2   -1.46766989 -24.97209820  4.41708968 
      383   1    0.00305479 -23.52869830  5.89728958 
      384   2   -1.46381990 -22.07999841  7.37628947 
      385   1    0.00748102 -20.63629851  8.86259936 
      386   2   -1.45529989 -19.18089861  10.34519925 
      387   1    0.01365610 -17.73019872  11.83799914 
      388   2   -1.45170989 -16.25379883  13.30689904 
      389   1    0.01554440 -14.79249893  14.79249893 
      390   2   -1.45170989 -13.30689904  16.25379883 
      391   1    0.01365610 -11.83799914  17.73019872 
      392   2   -1.45529989 -10.34519925  19.18089861 
      393   1    0.00748102 -8.86259936  20.63629851 
      394   2   -1.46381990 -7.37628947  22.07999841 
      395   1    0.00305479 -5.89728958  23.52869830 
      396   2   -1.46766989 -4.41708968  24.97209820 
      397   2    1.48030989 -24.96989820  7.36212947 
      398   1    2.95112979 -23.52269830  8.84058936 
      399   2    1.48954989 -22.07219841  10.32219926 
      400   1    2.95810978 -20.62119851  11.80359915 
      401   2    1.49834989 -19.16479862  13.28659904 
      402   1    2.96370979 -17.69879872  14.75879893 
      403   2    1.50119989 -16.23369883  16.23369883 
      404   1    2.96370979 -14.75879893  17.69879872 
      405   2    1.49834989 -13.28659904  19.16479862 
      406   1    2.95810978 -11.80359915  20.62119851 
      407   2    1.48954989 -10.32219926  22.07219841 
      408   1    2.95112979 -8.84058936  23.52269830 
      409   2    1.48030989 -7.36212947  24.96989820 
      410   2    4.42308968 -24.96769820  10.30199925 
      411   1    5.89231958 -23.51599830  11.77739915 
      412   2    4.43236968 -22.06339841  13.25819904 
      413   1    5.89789958 -20.60199851  14.72909894 
      414   2    4.43784968 -19.14349862  16.20769883 
      415   1    5.90020958 -17.67259873  17.67259873 
      416   2    4.43784968 -16.20769883  19.14349862 
      417   1    5.89789958 -14.72909894  20.60199851 
      418   2    4.43236968 -13.25819904  22.06339841 
      419   1    5.89231958 -11.77739915  23.51599830 
      420   2    4.42308968 -10.30199925  24.96769820 
      421   1   -23.52069830 -8.83822936 -8.83822936 
      422   2   -24.97169820 -7.36545947 -7.36545947 
      423   1   -23.52759830 -5.89859958 -5.89859958 
      424   2   -24.97329820 -4.42331968 -4.42331968 
      425   1   -23.53389830 -2.95179979 -2.95179979 
      426   2   -24.97539820 -1.47551989 -1.47551989 
      427   1   -23.53899830 -0.00000000 -0.00000000 
      428   2   -24.97539820  1.47551989  1.47551989 
      429   1   -23.53389830  2.95179979  2.95179979 
      430   2   -24.97329820  4.42331968  4.42331968 
      431   1   -23.52759830  5.89859958  5.89859958 
      432   2   -24.97169820  7.36545947  7.36545947 
      433   1   -23.52069830  8.83822936  8.83822936 
      434   1   -20.61159851 -11.79289915 -8.84872936 
      435   2   -22.07419841 -10.32409926 -7.38181947 
      436   1   -20.63579851 -8.86249936 -5.91399957 
      437   2   -22.08449840 -7.38447947 -4.43970968 
      438   1   -20.65259851 -5.91685957 -2.96471978 
      439   2   -22.09349841 -4.43399968 -1.48659989 
      440   1   -20.67159851 -2.95755978 -0.00309479 
      441   2   -22.10119841 -1.47444989  1.47444989 
      442   1   -20.67159851  0.00309479  2.95755978 
      443   2   -22.09349841  1.48659989  4.43399968 
      444   1   -20.65259851  2.96471978  5.91685957 
      445   2   -22.08449840  4.43970968  7.38447947 
      446   1   -20.63579851  5.91399957  8.86249936 
      447   2   -22.07419841  7.38181947  10.32409926 
      448   1   -20.61159851  8.84872936  11.79289915 
      449   1   -17.65559872 -17.65559872 -11.77459915 
      450   2   -19.13539862 -16.19799883 -10.31619925 
      451   1   -17.68739872 -14.74529894 -8.85263936 
      452   2   -19.16119862 -13.28019904 -7.39273946 
      453   1   -17.72139872 -11.82609914 -5.92592957 
      454   2   -19.19239861 -10.35639925 -4.46058968 
      455   1   -17.76829872 -8.90030936 -2.98499979 
      456   2   -19.21239861 -7.40742947 -1.50494989 
      457   1   -17.81419872 -5.92860957 -0.00943916 
      458   2   -19.23809861 -4.43755968  1.46893989 
      459   1   -17.82369871 -2.96082979  2.96082979 
      460   2   -19.23809861 -1.46893989  4.43755968 
      461   1   -17.81419872  0.00943916  5.92860957 
      462   2   -19.21239861  1.50494989  7.40742947 
      463   1   -17.76829872  2.98499979  8.90030936 
      464   2   -19.19239861  4.46058968  10.35639925 
      465   1   -17.72139872  5.92592957  11.82609914 
      466   2   -19.16119862  7.39273946  13.28019904 
      467   1   -17.68739872  8.85263936  14.74529894 
      468   2   -19.13539862  10.31619925  16.19799883 
      469   1   -17.65559872  11.77459915  17.65559872 
      470   2   -16.19799883 -19.13539862 -10.31619925 
      471   1   -14.74529894 -17.68739872 -8.85263936 
      472   2   -16.22879883 -16.22879883 -7.39756947 
      473   1   -14.78249893 -14.78249893 -5.93243957 
      474   2   -16.26779883 -13.32149904 -4.47616968 
      475   1   -14.83449893 -11.87899914 -3.00488979 
      476   2   -16.32409882 -10.41709925 -1.55366989 
      477   3   -14.88369893 -8.93029936 -0.00975823 
      478   2   -16.38859882 -7.41600947  1.45908989 
      479   3   -14.89869893 -5.95160957  2.97457978 
      480   2   -16.39739882 -4.43979968  4.43979968 
      481   3   -14.89869893 -2.97457978  5.95160957 
      482   2   -16.38859882 -1.45908989  7.41600947 
      483   3   -14.88369893  0.00975822  8.93029936 
      484   2   -16.32409882  1.55366989  10.41709925 
      485   1   -14.83449893  3.00488979  11.87899914 
      486   2   -16.26779883  4.47616968  13.32149904 
      487   1   -14.78249893  5.93243957  14.78249893 
      488   2   -16.22879883  7.39756947  16.22879883 
      489   1   -14.74529894  8.85263936  17.68739872 
      490   2   -16.19799883  10.31619925  19.13539862 
      491   1   -11.79289915 -20.61159851 -8.84872936 
      492   2   -13.28019904 -19.16119862 -7.39273946 
      493   1   -11.82609914 -17.72139872 -5.92592957 
      494   2   -13.32149904 -16.26779883 -4.47616968 
      495   1   -11.87899914 -14.83449893 -3.00488979 
      496   2   -13.37939903 -13.37939903 -1.55804989 
      497   3   -11.91569914 -11.91569914 -0.00781181 
      498   2   -13.41049903 -10.43379925  1.49961989 
      499   3   -11.92379914 -8.94559935  2.99191978 
      500   2   -13.42459903 -7.46103946  4.48248968 
      501   3   -11.92829914 -5.95948957  5.95948957 
      502   2   -13.42459903 -4.48248968  7.46103946 
      503   3   -11.92379914 -2.99191978  8.94559935 
      504   2   -13.41049903 -1.49961989  10.43379925 
      505   3   -11.91569914  0.00781181  11.91569914 
      506   2   -13.37939903  1.55804989  13.37939903 
      507   1   -11.87899914  3.00488979  14.83449893 
      508   2   -13.32149904  4.47616968  16.26779883 
      509   1   -11.82609914  5.92592957  17.72139872 
      510   2   -13.28019904  7.39273946  19.16119862 
      511   1   -11.79289915  8.84872936  20.61159851 
      512   1   -8.83822936 -23.52069830 -8.83822936 
      513   2   -10.32409926 -22.07419841 -7.38181947 
      514   1   -8.86249936 -20.63579851 -5.91399957 
      515   2   -10.35639925 -19.19239861 -4.46058968 
      516   1   -8.90030936 -17.76829872 -2.98499979 
      517   2   -10.41709925 -16.32409882 -1.55366989 
      518   3   -8.93029936 -14.88369893 -0.00975823 
      519   2   -10.43379925 -13.41049903  1.49961989 
      520   3   -8.94559935 -11.92379914  2.99191978 
      521   2   -10.44809925 -10.44809925  4.49107967 
      522   3   -8.94186936 -8.94186936  5.95418957 
      523   2   -10.41889925 -7.43801946  7.43801946 
      524   3   -8.94186936 -5.95418957  8.94186936 
      525   2   -10.44809925 -4.49107967  10.44809925 
      526   3   -8.94559935 -2.99191978  11.92379914 
      527   2   -10.43379925 -1.49961989  13.41049903 
      528   3   -8.93029936  0.00975822  14.88369893 
      529   2   -10.41709925  1.55366989  16.32409882 
      530   1   -8.90030936  2.98499979  17.76829872 
      531   2   -10.35639925  4.46058968  19.19239861 
      532   1   -8.86249936  5.91399957  20.63579851 
      533   2   -10.32409926  7.38181947  22.07419841 
      534   1   -8.83822936  8.83822936  23.52069830 
      535   2   -7.36545947 -24.97169820 -7.36545947 
      536   1   -5.89859958 -23.52759830 -5.89859958 
      537   2   -7.38447947 -22.08449840 -4.43970968 
      538   1   -5.91685957 -20.65259851 -2.96471978 
      539   2   -7.40742947 -19.21239861 -1.50494989 
      540   1   -5.92860957 -17.81419872 -0.00943916 
      541   2   -7.41600947 -16.38859882  1.45908989 
      542   3   -5.95160957 -14.89869893  2.97457978 
      543   2   -7.46103946 -13.42459903  4.48248968 