LAMMPS configuration data file

  2855 atoms

  4 atom types

  -49.624598  49.624598  xlo xhi
  -49.624598  49.624598  ylo yhi
  -26.141420  26.141420  zlo zhi

 Masses

  1   78.960
  2   112.411
  3   1.000
  4   1.000

 Atoms

        1   1   -28.09019797 -28.09019797  1.53468989 
        2   2   -29.56639787 -26.58109808  3.06046978 
        3   1   -28.06799798 -25.09639819  4.59407967 
        4   2   -26.58109808 -29.56639787  3.06046978 
        5   1   -25.09639819 -28.06799798  4.59407967 
        6   2   -26.55419809 -26.55419809  6.13138956 
        7   1   -28.06699797 -28.06699797 -4.58142967 
        8   2   -29.58119786 -26.60079808 -3.05132978 
        9   1   -28.09799797 -25.11419819 -1.52296989 
       10   2   -29.59979786 -23.62949830  0.00165182 
       11   1   -28.10439797 -22.14639840  1.53032989 
       12   2   -29.58609786 -20.65179851  3.05743978 
       13   1   -28.08119797 -19.17899861  4.59159967 
       14   2   -26.60079808 -29.58119786 -3.05132978 
       15   1   -25.11419819 -28.09799797 -1.52296989 
       16   2   -26.60629808 -26.60629808  0.00081223 
       17   1   -25.11829819 -25.11829819  1.52954989 
       18   2   -26.59589808 -23.61879830  3.05616978 
       19   1   -25.10469819 -22.13799840  4.59082967 
       20   2   -26.56869808 -20.63949851  6.12753956 
       21   2   -23.62949830 -29.59979786  0.00165182 
       22   1   -22.14639840 -28.10439797  1.53032989 
       23   2   -23.61879830 -26.59589808  3.05616978 
       24   1   -22.13799840 -25.10469819  4.59082967 
       25   2   -23.60159830 -23.60159830  6.12665956 
       26   2   -20.65179851 -29.58609786  3.05743978 
       27   1   -19.17899861 -28.08119797  4.59159967 
       28   2   -20.63949851 -26.56869808  6.12753956 
       29   1   -28.07739797 -22.13469840 -4.58608967 
       30   2   -29.59249787 -20.66869851 -3.05664978 
       31   1   -28.11129797 -19.18379862 -1.52713989 
       32   2   -29.61479786 -17.70559872 -0.00111470 
       33   1   -28.11699797 -16.22849883  1.52863989 
       34   2   -29.59929786 -14.74019894  3.05807978 
       35   1   -28.08919797 -13.27299904  4.59159967 
       36   2   -26.57769808 -26.57769808 -6.12515956 
       37   1   -25.10159819 -25.10159819 -4.58683967 
       38   2   -26.60509808 -23.63149829 -3.05624978 
       39   1   -25.12379819 -22.14849840 -1.52757989 
       40   2   -26.61849808 -20.66679851 -0.00162659 
       41   1   -25.12899819 -19.18729861  1.52845989 
       42   2   -26.60969808 -17.69819872  3.05674978 
       43   1   -25.11329819 -16.22599883  4.59168967 
       44   2   -26.57839808 -14.73419894  6.12849956 
       45   1   -22.13469840 -28.07739797 -4.58608967 
       46   2   -23.63149829 -26.60509808 -3.05624978 
       47   1   -22.14849840 -25.12379819 -1.52757989 
       48   2   -23.63599830 -23.63599830 -0.00208232 
       49   1   -22.15259840 -22.15259840  1.52846989 
       50   2   -23.63049829 -20.66109851  3.05609978 
       51   1   -22.14459840 -19.18239861  4.59116967 
       52   2   -23.61179830 -17.69079872  6.12773956 
       53   2   -20.66869851 -29.59249787 -3.05664978 
       54   1   -19.18379862 -28.11129797 -1.52713989 
       55   2   -20.66679851 -26.61849808 -0.00162659 
       56   1   -19.18729861 -25.12899819  1.52845989 
       57   2   -20.66109851 -23.63049829  3.05609978 
       58   1   -19.18239861 -22.14459840  4.59116967 
       59   2   -20.64929851 -20.64929851  6.12676956 
       60   2   -17.70559872 -29.61479786 -0.00111470 
       61   1   -16.22849883 -28.11699797  1.52863989 
       62   2   -17.69819872 -26.60969808  3.05674978 
       63   1   -16.22599883 -25.11329819  4.59168967 
       64   2   -17.69079872 -23.61179830  6.12773956 
       65   2   -14.74019894 -29.59929786  3.05807978 
       66   1   -13.27299904 -28.08919797  4.59159967 
       67   2   -14.73419894 -26.57839808  6.12849956 
       68   1   -28.08559797 -16.22069883 -4.59223967 
       69   2   -29.60079786 -14.75629894 -3.06173978 
       70   1   -28.11999797 -13.27349904 -1.53038989 
       71   2   -29.62289786 -11.79849915 -0.00229037 
       72   1   -28.12259797 -10.32489925  1.52808989 
       73   2   -29.60239786 -8.83798936  3.05850978 
       74   1   -28.08969797 -7.37483947  4.59269967 
       75   2   -26.57939808 -20.66059851 -6.12878956 
       76   1   -25.10949819 -19.17899861 -4.59157967 
       77   2   -26.61319808 -17.71029872 -3.06071978 
       78   1   -25.13239819 -16.22899883 -1.53046989 
       79   2   -26.62829808 -14.75259894 -0.00285457 
       80   1   -25.13669819 -13.27809904  1.52826989 
       81   2   -26.61679808 -11.79299915  3.05728978 
       82   1   -25.11659818 -10.32439926  4.59149967 
       83   2   -26.58109808 -8.83639936  6.13063955 
       84   2   -23.61649830 -23.61649830 -6.12859956 
       85   1   -22.14099840 -22.14099840 -4.59170967 
       86   2   -23.63579829 -20.66929851 -3.06119978 
       87   1   -22.15589840 -19.18909862 -1.53131989 
       88   2   -23.64499829 -17.70979872 -0.00302698 
       89   1   -22.16029840 -16.23199883  1.52801989 
       90   2   -23.63949830 -14.74859894  3.05812978 
       91   1   -22.14969840 -13.27569904  4.59240967 
       92   2   -23.61709829 -11.78849915  6.12902956 
       93   2   -20.66059851 -26.57939808 -6.12878956 
       94   1   -19.17899861 -25.10949819 -4.59157967 
       95   2   -20.66929851 -23.63579829 -3.06119978 
       96   1   -19.18909862 -22.15589840 -1.53131989 
       97   2   -20.67299851 -20.67299851 -0.00351308 
       98   1   -19.19239861 -19.19239861  1.52758989 
       99   2   -20.66939851 -17.70599872  3.05798978 
      100   1   -19.18719862 -16.22939883  4.59354967 
      101   2   -20.65629851 -14.74259894  6.12954956 
      102   1   -16.22069883 -28.08559797 -4.59223967 
      103   2   -17.71029872 -26.61319808 -3.06071978 
      104   1   -16.22899883 -25.13239819 -1.53046989 
      105   2   -17.70979872 -23.64499829 -0.00302698 
      106   1   -16.23199883 -22.16029840  1.52801989 
      107   2   -17.70599872 -20.66939851  3.05798978 
      108   1   -16.22939883 -19.18719862  4.59354967 
      109   2   -17.69789872 -17.69789872  6.13023956 
      110   2   -14.75629894 -29.60079786 -3.06173978 
      111   1   -13.27349904 -28.11999797 -1.53038989 
      112   2   -14.75259894 -26.62829808 -0.00285457 
      113   1   -13.27809904 -25.13669819  1.52826989 
      114   2   -14.74859894 -23.63949830  3.05812978 
      115   1   -13.27569904 -22.14969840  4.59240967 
      116   2   -14.74259894 -20.65629851  6.12954956 
      117   2   -11.79849915 -29.62289786 -0.00229037 
      118   1   -10.32489925 -28.12259797  1.52808989 
      119   2   -11.79299915 -26.61679808  3.05728978 
      120   1   -10.32439926 -25.11659818  4.59149967 
      121   2   -11.78849915 -23.61709829  6.12902956 
      122   2   -8.83798936 -29.60239786  3.05850978 
      123   1   -7.37483947 -28.08969797  4.59269967 
      124   2   -8.83639936 -26.58109808  6.13063955 
      125   1   -28.08939797 -10.31729925 -4.59365967 
      126   2   -29.60399787 -8.85325936 -3.06184978 
      127   1   -28.12319797 -7.37121947 -1.53003989 
      128   2   -29.62369786 -5.89695958 -0.00062107 
      129   1   -28.12179797 -4.42525968  1.52966989 
      130   2   -29.60249786 -2.94129979  3.06115978 
      131   1   -28.09009797 -1.47766989  4.59391967 
      132   2   -26.58179808 -14.75389893 -6.13274956 
      133   1   -25.11379819 -13.27129904 -4.59441967 
      134   2   -26.61749808 -11.80469915 -3.06209978 
      135   1   -25.13749819 -10.32499925 -1.53084989 
      136   2   -26.63169808 -8.84911936 -0.00181975 
      137   1   -25.13769818 -7.37615947  1.52866989 
      138   2   -26.61669808 -5.89363958  3.05951978 
      139   1   -25.11629819 -4.42642968  4.59336967 
      140   2   -26.58199808 -2.94008979  6.13204956 
      141   2   -23.61839830 -17.70509872 -6.13284956 
      142   1   -22.14609840 -16.22649883 -4.59644967 
      143   2   -23.64009829 -14.75709894 -3.06434978 
      144   1   -22.16139840 -13.27879904 -1.53345989 
      145   2   -23.65049829 -11.80369915 -0.00296463 
      146   1   -22.16379840 -10.32899926  1.52828989 
      147   2   -23.64129829 -8.84688936  3.05839978 
      148   1   -22.14999840 -7.37674947  4.59313967 
      149   2   -23.61839830 -5.89273957  6.13147956 
      150   2   -20.65929851 -20.65929851 -6.13302956 
      151   1   -19.18319861 -19.18319861 -4.59784967 
      152   2   -20.67199851 -17.71159872 -3.06576978 
      153   1   -19.19349861 -16.23279883 -1.53490989 
      154   2   -20.67839851 -14.75689893 -0.00404574 
      155   1   -19.19699861 -13.28149904  1.52848989 
      156   2   -20.67409851 -11.80019915  3.05949978 
      157   1   -19.18919861 -10.32689925  4.59425967 
      158   2   -20.65859851 -8.84393936  6.13168956 
      159   2   -17.70509872 -23.61839830 -6.13284956 
      160   1   -16.22649883 -22.14609840 -4.59644967 
      161   2   -17.71159872 -20.67199851 -3.06576978 
      162   1   -16.23279883 -19.19349861 -1.53490989 
      163   2   -17.71389872 -17.71389872 -0.00486330 
      164   1   -16.23599883 -16.23599883  1.52778989 
      165   2   -17.71149872 -14.75439894  3.06071978 
      166   1   -16.23199883 -13.27789904  4.59543967 
      167   2   -17.70189872 -11.79419915  6.13240956 
      168   2   -14.75389893 -26.58179808 -6.13274956 
      169   1   -13.27129904 -25.11379819 -4.59441967 
      170   2   -14.75709894 -23.64009829 -3.06434978 
      171   1   -13.27879904 -22.16139840 -1.53345989 
      172   2   -14.75689893 -20.67839851 -0.00404574 
      173   1   -13.28149904 -19.19699861  1.52848989 
      174   2   -14.75439894 -17.71149872  3.06071978 
      175   1   -13.27789904 -16.23199883  4.59543967 
      176   2   -14.74689893 -14.74689893  6.13281956 
      177   1   -10.31729925 -28.08939797 -4.59365967 
      178   2   -11.80469915 -26.61749808 -3.06209978 
      179   1   -10.32499925 -25.13749819 -1.53084989 
      180   2   -11.80369915 -23.65049829 -0.00296463 
      181   1   -10.32899926 -22.16379840  1.52828989 
      182   2   -11.80019915 -20.67409851  3.05949978 
      183   1   -10.32689925 -19.18919861  4.59425967 
      184   2   -11.79419915 -17.70189872  6.13240956 
      185   2   -8.85325936 -29.60399787 -3.06184978 
      186   1   -7.37121947 -28.12319797 -1.53003989 
      187   2   -8.84911936 -26.63169808 -0.00181975 
      188   1   -7.37615947 -25.13769818  1.52866989 
      189   2   -8.84688936 -23.64129829  3.05839978 
      190   1   -7.37674947 -22.14999840  4.59313967 
      191   2   -8.84393936 -20.65859851  6.13168956 
      192   2   -5.89695958 -29.62369786 -0.00062107 
      193   1   -4.42525968 -28.12179797  1.52966989 
      194   2   -5.89363958 -26.61669808  3.05951978 
      195   1   -4.42642968 -25.11629819  4.59336967 
      196   2   -5.89273957 -23.61839830  6.13147956 
      197   2   -2.94129979 -29.60249786  3.06115978 
      198   1   -1.47766989 -28.09009797  4.59391967 
      199   2   -2.94008979 -26.58199808  6.13204956 
      200   1   -28.09129797 -4.41896968 -4.59447967 
      201   2   -29.60379786 -2.95491979 -3.06180978 
      202   1   -28.12309797 -1.47239990 -1.52929989 
      203   2   -29.62459786 -0.00000000 -0.00000000 
      204   1   -28.12309797  1.47239990  1.52929989 
      205   2   -29.60379786  2.95491979  3.06180978 
      206   1   -28.09129797  4.41896968  4.59447967 
      207   2   -26.58309808 -8.85386936 -6.13424956 
      208   1   -25.11719819 -7.37083947 -4.59429967 
      209   2   -26.62009808 -5.90382957 -3.06187978 
      210   1   -25.13919818 -4.42374968 -1.53096989 
      211   2   -26.63199808 -2.94940979 -0.00057507 
      212   1   -25.13739819 -1.47633990  1.52942989 
      213   2   -26.61859808  0.00450331  3.05965978 
      214   1   -25.11809818  1.47176989  4.59380967 
      215   2   -26.58319808  2.95720979  6.13348956 
      216   2   -23.61939829 -11.80119915 -6.13367956 
      217   1   -22.14939840 -10.32209926 -4.59636967 
      218   2   -23.64359829 -8.85412936 -3.06291978 
      219   1   -22.16539840 -7.37588947 -1.53205989 
      220   2   -23.65229829 -5.90068957 -0.00152523 
      221   1   -22.16379840 -4.42735968  1.52990989 
      222   2   -23.64219829 -2.94700979  3.06078978 
      223   1   -22.15059840 -1.47698989  4.59461967 
      224   2   -23.61989830  0.00562761  6.13254956 
      225   2   -20.65989851 -14.75209894 -6.13613956 
      226   1   -19.18649862 -13.27419904 -4.60053967 
      227   2   -20.67519851 -11.80519915 -3.06656978 
      228   1   -19.19819861 -10.32869926 -1.53432989 
      229   2   -20.68189851 -8.85343936 -0.00293293 
      230   1   -19.19859861 -7.37892947  1.52901989 
      231   2   -20.67439851 -5.89928958  3.06182978 
      232   1   -19.18929861 -4.42779968  4.59700967 
      233   2   -20.66019851 -2.94608979  6.13364956 
      234   2   -17.70399872 -17.70399872 -6.13864956 
      235   1   -16.22839883 -16.22839883 -4.60364967 
      236   2   -17.71219872 -14.75709894 -3.07049978 
      237   1   -16.23599883 -13.28089904 -1.53721989 
      238   2   -17.71759872 -11.80649915 -0.00437847 
      239   1   -16.23859883 -10.33109925  1.52864989 
      240   2   -17.71359872 -8.85166936  3.06137978 
      241   1   -16.23259883 -7.37758947  4.59628967 
      242   2   -17.70309872 -5.89716958  6.13538956 
      243   2   -14.75209894 -20.65989851 -6.13613956 
      244   1   -13.27419904 -19.18649862 -4.60053967 
      245   2   -14.75709894 -17.71219872 -3.07049978 
      246   1   -13.28089904 -16.23599883 -1.53721989 
      247   2   -14.75949894 -14.75949894 -0.00521939 
      248   1   -13.28369904 -13.28369904  1.52892989 
      249   2   -14.75729893 -11.80389915  3.06171978 
      250   1   -13.27839904 -10.32699925  4.59435967 
      251   2   -14.74809893 -8.84670936  6.13399956 
      252   2   -11.80119915 -23.61939829 -6.13367956 
      253   1   -10.32209926 -22.14939840 -4.59636967 
      254   2   -11.80519915 -20.67519851 -3.06656978 
      255   1   -10.32869926 -19.19819861 -1.53432989 
      256   2   -11.80649915 -17.71759872 -0.00437847 
      257   1   -10.33109925 -16.23859883  1.52864989 
      258   2   -11.80389915 -14.75729893  3.06171978 
      259   1   -10.32699925 -13.27839904  4.59435967 
      260   2   -11.79569915 -11.79569915  6.13137956 
      261   2   -8.85386936 -26.58309808 -6.13424956 
      262   1   -7.37083947 -25.11719819 -4.59429967 
      263   2   -8.85412936 -23.64359829 -3.06291978 
      264   1   -7.37588947 -22.16539840 -1.53205989 
      265   2   -8.85343936 -20.68189851 -0.00293293 
      266   1   -7.37892947 -19.19859861  1.52901989 
      267   2   -8.85166936 -17.71359872  3.06137978 
      268   1   -7.37758947 -16.23259883  4.59628967 
      269   2   -8.84670936 -14.74809893  6.13399956 
      270   1   -4.41896968 -28.09129797 -4.59447967 
      271   2   -5.90382957 -26.62009808 -3.06187978 
      272   1   -4.42374968 -25.13919818 -1.53096989 
      273   2   -5.90068957 -23.65229829 -0.00152523 
      274   1   -4.42735968 -22.16379840  1.52990989 
      275   2   -5.89928958 -20.67439851  3.06182978 
      276   1   -4.42779968 -19.18929861  4.59700967 
      277   2   -5.89716958 -17.70309872  6.13538956 
      278   2   -2.95491979 -29.60379786 -3.06180978 
      279   1   -1.47239990 -28.12309797 -1.52929989 
      280   2   -2.94940979 -26.63199808 -0.00057507 
      281   1   -1.47633990 -25.13739819  1.52942989 
      282   2   -2.94700979 -23.64219829  3.06078978 
      283   1   -1.47698989 -22.15059840  4.59461967 
      284   2   -2.94608979 -20.66019851  6.13364956 
      285   2   -0.00000000 -29.62459786 -0.00000000 
      286   1    1.47239990 -28.12309797  1.52929989 
      287   2    0.00450331 -26.61859808  3.05965978 
      288   1    1.47176989 -25.11809818  4.59380967 
      289   2    0.00562761 -23.61989830  6.13254956 
      290   2    2.95491979 -29.60379786  3.06180978 
      291   1    4.41896968 -28.09129797  4.59447967 
      292   2    2.95720979 -26.58319808  6.13348956 
      293   1   -28.09009797  1.47766989 -4.59391967 
      294   2   -29.60249786  2.94129979 -3.06115978 
      295   1   -28.12179797  4.42525968 -1.52966989 
      296   2   -29.62369786  5.89695958  0.00062106 
      297   1   -28.12319797  7.37121947  1.53003989 
      298   2   -29.60399787  8.85325936  3.06184978 
      299   1   -28.08939797  10.31729925  4.59365967 
      300   2   -26.58319808 -2.95720979 -6.13348956 
      301   1   -25.11809818 -1.47176989 -4.59380967 
      302   2   -26.61859808 -0.00450331 -3.05965978 
      303   1   -25.13739819  1.47633990 -1.52942989 
      304   2   -26.63199808  2.94940979  0.00057507 
      305   1   -25.13919818  4.42374968  1.53096989 
      306   2   -26.62009808  5.90382957  3.06187978 
      307   1   -25.11719819  7.37083947  4.59429967 
      308   2   -26.58309808  8.85386936  6.13424956 
      309   2   -23.62079829 -5.90356957 -6.13449956 
      310   1   -22.15209840 -4.42221968 -4.59654967 
      311   2   -23.64419829 -2.95309979 -3.06244978 
      312   1   -22.16439840 -1.47470989 -1.53096989 
      313   2   -23.65139829 -0.00000000 -0.00000000 
      314   1   -22.16439840  1.47470989  1.53096989 
      315   2   -23.64419829  2.95309979  3.06244978 
      316   1   -22.15209840  4.42221968  4.59654967 
      317   2   -23.62079829  5.90356957  6.13449956 
      318   2   -20.66159851 -8.85090936 -6.13639956 
      319   1   -19.19049861 -7.37269947 -4.59909967 
      320   2   -20.67879851 -5.90306957 -3.06536978 
      321   1   -19.19999861 -4.42632968 -1.53326989 
      322   2   -20.68169851 -2.95142978 -0.00081290 
      323   1   -19.19779861 -1.47730989  1.53123989 
      324   2   -20.67609851  0.00146686  3.06249978 
      325   1   -19.19059862  1.47223989  4.59800967 
      326   2   -20.66139851  2.95293979  6.13511956 
      327   2   -17.70439872 -11.79839915 -6.13900956 
      328   1   -16.23149883 -10.32309925 -4.60185967 
      329   2   -17.71639872 -8.85360936 -3.06789978 
      330   1   -16.24039883 -7.37736947 -1.53456989 
      331   2   -17.71979872 -5.90276957 -0.00213791 
      332   1   -16.23889883 -4.42919968  1.53115989 
      333   2   -17.71409872 -2.95091978  3.06502978 
      334   1   -16.23279883 -1.47795989  4.59927967 
      335   2   -17.70469872  0.00137500  6.13652956 
      336   2   -14.74959893 -14.74959893 -6.14141956 
      337   1   -13.27529904 -13.27529904 -4.60359967 
      338   2   -14.75829894 -11.80419915 -3.07122978 
      339   1   -13.28379904 -10.32989925 -1.53671989 
      340   2   -14.76209894 -8.85482936 -0.00382339 
      341   1   -13.28399904 -7.37932947  1.52911989 
      342   2   -14.75729893 -5.90232957  3.06437978 
      343   1   -13.27829904 -4.42785968  4.59758967 
      344   2   -14.74989894 -2.94994979  6.13663956 
      345   2   -11.79839915 -17.70439872 -6.13900956 
      346   1   -10.32309925 -16.23149883 -4.60185967 
      347   2   -11.80419915 -14.75829894 -3.07122978 
      348   1   -10.32989925 -13.28379904 -1.53671989 
      349   2   -11.80809915 -11.80809915 -0.00474362 
      350   1   -10.33099926 -10.33099926  1.52729989 
      351   2   -11.80409915 -8.85305936  3.06053978 
      352   1   -10.32629926 -7.37659947  4.59307967 
      353   2   -11.79589915 -5.89851958  6.13376956 
      354   2   -8.85090936 -20.66159851 -6.13639956 
      355   1   -7.37269947 -19.19049861 -4.59909967 
      356   2   -8.85360936 -17.71639872 -3.06789978 
      357   1   -7.37736947 -16.24039883 -1.53456989 
      358   2   -8.85482936 -14.76209894 -0.00382339 
      359   1   -7.37932947 -13.28399904  1.52911989 
      360   2   -8.85305936 -11.80409915  3.06053978 
      361   1   -7.37659947 -10.32629926  4.59307967 
      362   2   -8.84647936 -8.84647936  6.13190956 
      363   2   -5.90356957 -23.62079829 -6.13449956 
      364   1   -4.42221968 -22.15209840 -4.59654967 
      365   2   -5.90306957 -20.67879851 -3.06536978 
      366   1   -4.42632968 -19.19999861 -1.53326989 
      367   2   -5.90276957 -17.71979872 -0.00213791 
      368   1   -4.42919968 -16.23889883  1.53115989 
      369   2   -5.90232957 -14.75729893  3.06437978 
      370   1   -4.42785968 -13.27829904  4.59758967 
      371   2   -5.89851958 -11.79589915  6.13376956 
      372   2   -2.95720979 -26.58319808 -6.13348956 
      373   1   -1.47176989 -25.11809818 -4.59380967 
      374   2   -2.95309979 -23.64419829 -3.06244978 
      375   1   -1.47470989 -22.16439840 -1.53096989 
      376   2   -2.95142978 -20.68169851 -0.00081290 
      377   1   -1.47730989 -19.19779861  1.53123989 
      378   2   -2.95091978 -17.71409872  3.06502978 
      379   1   -1.47795989 -16.23279883  4.59927967 
      380   2   -2.94994979 -14.74989894  6.13663956 
      381   1    1.47766989 -28.09009797 -4.59391967 
      382   2   -0.00450331 -26.61859808 -3.05965978 
      383   1    1.47633990 -25.13739819 -1.52942989 
      384   2   -0.00000000 -23.65139829 -0.00000000 
      385   1    1.47470989 -22.16439840  1.53096989 
      386   2    0.00146686 -20.67609851  3.06249978 
      387   1    1.47223989 -19.19059862  4.59800967 
      388   2    0.00137500 -17.70469872  6.13652956 
      389   2    2.94129979 -29.60249786 -3.06115978 
      390   1    4.42525968 -28.12179797 -1.52966989 
      391   2    2.94940979 -26.63199808  0.00057507 
      392   1    4.42374968 -25.13919818  1.53096989 
      393   2    2.95309979 -23.64419829  3.06244978 
      394   1    4.42221968 -22.15209840  4.59654967 
      395   2    2.95293979 -20.66139851  6.13511956 
      396   2    5.89695958 -29.62369786  0.00062106 
      397   1    7.37121947 -28.12319797  1.53003989 
      398   2    5.90382957 -26.62009808  3.06187978 
      399   1    7.37083947 -25.11719819  4.59429967 
      400   2    5.90356957 -23.62079829  6.13449956 
      401   2    8.85325936 -29.60399787  3.06184978 
      402   1    10.31729925 -28.08939797  4.59365967 
      403   2    8.85386936 -26.58309808  6.13424956 
      404   1   -28.08969797  7.37483947 -4.59269967 
      405   2   -29.60239786  8.83798936 -3.05850978 
      406   1   -28.12259797  10.32489925 -1.52808989 
      407   2   -29.62289786  11.79849915  0.00229036 
      408   1   -28.11999797  13.27349904  1.53038989 
      409   2   -29.60079786  14.75629894  3.06173978 
      410   1   -28.08559797  16.22069883  4.59223967 
      411   2   -26.58199808  2.94008979 -6.13204956 
      412   1   -25.11629819  4.42642968 -4.59336967 
      413   2   -26.61669808  5.89363958 -3.05951978 
      414   1   -25.13769818  7.37615947 -1.52866989 
      415   2   -26.63169808  8.84911936  0.00181974 
      416   1   -25.13749819  10.32499925  1.53084989 
      417   2   -26.61749808  11.80469915  3.06209978 
      418   1   -25.11379819  13.27129904  4.59441967 
      419   2   -26.58179808  14.75389893  6.13274956 
      420   2   -23.61989830 -0.00562761 -6.13254956 
      421   1   -22.15059840  1.47698989 -4.59461967 
      422   2   -23.64219829  2.94700979 -3.06078978 
      423   1   -22.16379840  4.42735968 -1.52990989 
      424   2   -23.65229829  5.90068957  0.00152523 
      425   1   -22.16539840  7.37588947  1.53205989 
      426   2   -23.64359829  8.85412936  3.06291978 
      427   1   -22.14939840  10.32209926  4.59636967 
      428   2   -23.61939829  11.80119915  6.13367956 
      429   2   -20.66139851 -2.95293979 -6.13511956 
      430   1   -19.19059862 -1.47223989 -4.59800967 
      431   2   -20.67609851 -0.00146686 -3.06249978 
      432   1   -19.19779861  1.47730989 -1.53123989 
      433   2   -20.68169851  2.95142978  0.00081290 
      434   1   -19.19999861  4.42632968  1.53326989 
      435   2   -20.67879851  5.90306957  3.06536978 
      436   1   -19.19049861  7.37269947  4.59909967 
      437   2   -20.66159851  8.85090936  6.13639956 
      438   2   -17.70619872 -5.90014957 -6.13856956 
      439   1   -16.23449883 -4.42290968 -4.60094967 
      440   2   -17.71689872 -2.95174979 -3.06648978 
      441   1   -16.24029883 -1.47470989 -1.53309989 
      442   2   -17.71919872 -0.00000000 -0.00000000 
      443   1   -16.24029883  1.47470989  1.53309989 
      444   2   -17.71689872  2.95174979  3.06648978 
      445   1   -16.23449883  4.42290968  4.60094967 
      446   2   -17.70619872  5.90014957  6.13856956 
      447   2   -14.75099894 -8.84782936 -6.13971956 
      448   1   -13.27869904 -7.37279947 -4.60029967 
      449   2   -14.76219894 -5.90135957 -3.06859978 
      450   1   -13.28619904 -4.42612968 -1.53505989 
      451   2   -14.76339893 -2.95184979 -0.00127101 
      452   1   -13.28599904 -1.47716989  1.53238989 
      453   2   -14.76069893 -0.00080543  3.06595978 
      454   1   -13.28049904  1.47175989  4.59971967 
      455   2   -14.75179894  2.94990979  6.13795956 
      456   2   -11.79699915 -11.79699915 -6.13947956 
      457   1   -10.32449926 -10.32449926 -4.60033967 
      458   2   -11.80639915 -8.85320936 -3.06827978 
      459   1   -10.33189925 -7.37794947 -1.53481989 
      460   2   -11.80959914 -5.90272957 -0.00332688 
      461   1   -10.33249926 -4.42761968  1.52976989 
      462   2   -11.80619915 -2.95121979  3.06444978 
      463   1   -10.32729925 -1.47682989  4.59722967 
      464   2   -11.79839915 -0.00036174  6.13680955 
      465   2   -8.84782936 -14.75099894 -6.13971956 
      466   1   -7.37279947 -13.27869904 -4.60029967 
      467   2   -8.85320936 -11.80639915 -3.06827978 
      468   1   -7.37794947 -10.33189925 -1.53481989 
      469   2   -8.85526936 -8.85526936 -0.00451818 
      470   1   -7.37894947 -7.37894947  1.52731989 
      471   2   -8.85246936 -5.90138957  3.06075978 
      472   1   -7.37582947 -4.42586968  4.59440967 
      473   2   -8.84720936 -2.94922979  6.13498956 
      474   2   -5.90014957 -17.70619872 -6.13856956 
      475   1   -4.42290968 -16.23449883 -4.60094967 
      476   2   -5.90135957 -14.76219894 -3.06859978 
      477   1   -4.42612968 -13.28619904 -1.53505989 
      478   2   -5.90272957 -11.80959914 -0.00332688 
      479   1   -4.42761968 -10.33249926  1.52976989 
      480   2   -5.90138957 -8.85246936  3.06075978 
      481   1   -4.42586968 -7.37582947  4.59440967 
      482   2   -5.89738958 -5.89738958  6.13352956 
      483   2   -2.95293979 -20.66139851 -6.13511956 
      484   1   -1.47223989 -19.19059862 -4.59800967 
      485   2   -2.95174979 -17.71689872 -3.06648978 
      486   1   -1.47470989 -16.24029883 -1.53309989 
      487   2   -2.95184979 -14.76339893 -0.00127100 
      488   1   -1.47716989 -13.28599904  1.53238989 
      489   2   -2.95121979 -11.80619915  3.06444978 
      490   1   -1.47682989 -10.32729925  4.59722967 
      491   2   -2.94922979 -8.84720936  6.13498956 
      492   2   -0.00562761 -23.61989830 -6.13254956 
      493   1    1.47698989 -22.15059840 -4.59461967 
      494   2   -0.00146686 -20.67609851 -3.06249978 
      495   1    1.47730989 -19.19779861 -1.53123989 
      496   2   -0.00000000 -17.71919872 -0.00000000 
      497   1    1.47470989 -16.24029883  1.53309989 
      498   2   -0.00080543 -14.76069893  3.06595978 
      499   1    1.47175989 -13.28049904  4.59971967 
      500   2   -0.00036174 -11.79839915  6.13680955 
      501   2    2.94008979 -26.58199808 -6.13204956 
      502   1    4.42642968 -25.11629819 -4.59336967 
      503   2    2.94700979 -23.64219829 -3.06078978 
      504   1    4.42735968 -22.16379840 -1.52990989 
      505   2    2.95142978 -20.68169851  0.00081290 
      506   1    4.42632968 -19.19999861  1.53326989 
      507   2    2.95174979 -17.71689872  3.06648978 
      508   1    4.42290968 -16.23449883  4.60094967 
      509   2    2.94990979 -14.75179894  6.13795956 
      510   1    7.37483947 -28.08969797 -4.59269967 
      511   2    5.89363958 -26.61669808 -3.05951978 
      512   1    7.37615947 -25.13769818 -1.52866989 
      513   2    5.90068957 -23.65229829  0.00152523 
      514   1    7.37588947 -22.16539840  1.53205989 
      515   2    5.90306957 -20.67879851  3.06536978 
      516   1    7.37269947 -19.19049861  4.59909967 
      517   2    5.90014957 -17.70619872  6.13856956 
      518   2    8.83798936 -29.60239786 -3.05850978 
      519   1    10.32489925 -28.12259797 -1.52808989 
      520   2    8.84911936 -26.63169808  0.00181974 
      521   1    10.32499925 -25.13749819  1.53084989 
      522   2    8.85412936 -23.64359829  3.06291978 
      523   1    10.32209926 -22.14939840  4.59636967 
      524   2    8.85090936 -20.66159851  6.13639956 
      525   2    11.79849915 -29.62289786  0.00229036 
      526   1    13.27349904 -28.11999797  1.53038989 
      527   2    11.80469915 -26.61749808  3.06209978 
      528   1    13.27129904 -25.11379819  4.59441967 
      529   2    11.80119915 -23.61939829  6.13367956 
      530   2    14.75629894 -29.60079786  3.06173978 
      531   1    16.22069883 -28.08559797  4.59223967 
      532   2    14.75389893 -26.58179808  6.13274956 
      533   1   -28.08919797  13.27299904 -4.59159967 
      534   2   -29.59929786  14.74019894 -3.05807978 
      535   1   -28.11699797  16.22849883 -1.52863989 
      536   2   -29.61479786  17.70559872  0.00111470 
      537   1   -28.11129797  19.18379862  1.52713989 
      538   2   -29.59249787  20.66869851  3.05664978 
      539   1   -28.07739797  22.13469840  4.58608967 
      540   2   -26.58109808  8.83639936 -6.13063955 
      541   1   -25.11659818  10.32439926 -4.59149967 
      542   2   -26.61679808  11.79299915 -3.05728978 
      543   1   -25.13669819  13.27809904 -1.52826989 
      544   2   -26.62829808  14.75259894  0.00285456 
      545   1   -25.13239819  16.22899883  1.53046989 
      546   2   -26.61319808  17.71029872  3.06071978 