LAMMPS configuration data file

  7369 atoms

  3 atom types

  -58.920300  58.920300  xlo xhi
  -58.920300  58.920300  ylo yhi
  -35.429400  35.429400  zlo zhi

 Masses

  1   32.065
  2   112.411
  3   78.960

 Atoms

        1   1   -36.73980000 -36.73980000  13.93620000 
        2   2   -38.13280000 -35.27330000  15.39320000 
        3   2   -35.27330000 -38.13280000  15.39320000 
        4   1   -36.97670000 -36.97670000  8.06816000 
        5   2   -38.32400000 -35.46840000  9.52476000 
        6   1   -36.88670000 -33.97140000  10.91920000 
        7   2   -38.15180000 -32.42990000  12.41690000 
        8   1   -36.75260000 -30.92600000  13.83120000 
        9   2   -38.06340000 -29.38850000  15.29300000 
       10   2   -35.46840000 -38.32400000  9.52476000 
       11   1   -33.97140000 -36.88670000  10.91920000 
       12   2   -35.35300000 -35.35300000  12.36830000 
       13   1   -33.87930000 -33.87930000  13.81820000 
       14   2   -35.26650000 -32.35060000  15.28630000 
       15   2   -32.42990000 -38.15180000  12.41690000 
       16   1   -30.92600000 -36.75260000  13.83120000 
       17   2   -32.35060000 -35.26650000  15.28630000 
       18   2   -29.38850000 -38.06340000  15.29300000 
       19   3   -37.31870000 -37.31870000  1.73897000 
       20   2   -38.75200000 -35.79880000  3.35485000 
       21   3   -37.27850000 -34.23900000  4.89961000 
       22   2   -38.47980000 -32.58000000  6.55985000 
       23   1   -36.99780000 -31.15490000  7.98100000 
       24   2   -38.24220000 -29.62520000  9.50925000 
       25   1   -36.83730000 -28.09470000  10.88910000 
       26   2   -38.13120000 -26.56110000  12.36970000 
       27   1   -36.75280000 -25.02660000  13.77040000 
       28   2   -38.06450000 -23.48960000  15.23300000 
       29   2   -35.79880000 -38.75200000  3.35485000 
       30   3   -34.23900000 -37.27850000  4.89961000 
       31   2   -35.61130000 -35.61130000  6.46671000 
       32   1   -34.11970000 -34.11970000  7.89519000 
       33   2   -35.45080000 -32.56790000  9.39202000 
       34   1   -33.97640000 -31.06890000  10.81390000 
       35   2   -35.31740000 -29.52450000  12.30460000 
       36   1   -33.87360000 -28.00600000  13.72070000 
       37   2   -35.24750000 -26.46660000  15.18940000 
       38   2   -32.58000000 -38.47980000  6.55985000 
       39   1   -31.15490000 -36.99780000  7.98100000 
       40   2   -32.56790000 -35.45080000  9.39202000 
       41   1   -31.06890000 -33.97640000  10.81390000 
       42   2   -32.46060000 -32.46060000  12.28330000 
       43   1   -30.97350000 -30.97350000  13.69290000 
       44   2   -32.37390000 -29.45030000  15.14940000 
       45   2   -29.62520000 -38.24220000  9.50925000 
       46   1   -28.09470000 -36.83730000  10.88910000 
       47   2   -29.52450000 -35.31740000  12.30460000 
       48   1   -28.00600000 -33.87360000  13.72070000 
       49   2   -29.45030000 -32.37390000  15.14940000 
       50   2   -26.56110000 -38.13120000  12.36970000 
       51   1   -25.02660000 -36.75280000  13.77040000 
       52   2   -26.46660000 -35.24750000  15.18940000 
       53   2   -23.48960000 -38.06450000  15.23300000 
       54   3   -37.30260000 -37.30260000 -4.94032000 
       55   2   -38.82140000 -35.86570000 -3.32996000 
       56   3   -37.43880000 -34.40090000 -1.61408000 
       57   2   -38.81480000 -32.88590000  0.05634940 
       58   3   -37.40350000 -31.34110000  1.66761000 
       59   2   -38.73980000 -29.82930000  3.37157000 
       60   3   -37.27340000 -28.27480000  4.92026000 
       61   2   -38.49970000 -26.63690000  6.58110000 
       62   1   -37.00830000 -25.21110000  7.98873000 
       63   2   -38.26370000 -23.69260000  9.51832000 
       64   1   -36.85570000 -22.14810000  10.87810000 
       65   2   -38.15010000 -20.62080000  12.36490000 
       66   1   -36.76940000 -19.07710000  13.75250000 
       67   2   -38.07570000 -17.55030000  15.23010000 
       68   2   -35.86570000 -38.82140000 -3.32996000 
       69   3   -34.40090000 -37.43880000 -1.61408000 
       70   2   -35.90530000 -35.90530000 -0.02166160 
       71   3   -34.38820000 -34.38820000  1.60293000 
       72   2   -35.79880000 -32.79970000  3.22349000 
       73   3   -34.27240000 -31.28130000  4.81278000 
       74   2   -35.61910000 -29.68230000  6.47080000 
       75   1   -34.10900000 -28.20550000  7.87763000 
       76   2   -35.44770000 -26.64970000  9.36046000 
       77   1   -33.97880000 -25.14430000  10.77290000 
       78   2   -35.32610000 -23.60090000  12.26000000 
       79   1   -33.88810000 -22.07180000  13.66750000 
       80   2   -35.25700000 -20.53510000  15.14410000 
       81   2   -32.88590000 -38.81480000  0.05634940 
       82   3   -31.34110000 -37.40350000  1.66761000 
       83   2   -32.79970000 -35.79880000  3.22349000 
       84   3   -31.28130000 -34.27240000  4.81278000 
       85   2   -32.66990000 -32.66990000  6.42829000 
       86   1   -31.18140000 -31.18140000  7.84945000 
       87   2   -32.56310000 -29.62540000  9.29834000 
       88   1   -31.08320000 -28.13510000  10.72370000 
       89   2   -32.45950000 -26.58920000  12.18450000 
       90   1   -30.99550000 -25.08050000  13.59290000 
       91   2   -32.37810000 -23.54200000  15.05400000 
       92   2   -29.82930000 -38.73980000  3.37157000 
       93   3   -28.27480000 -37.27340000  4.92026000 
       94   2   -29.68230000 -35.61910000  6.47080000 
       95   1   -28.20550000 -34.10900000  7.87763000 
       96   2   -29.62540000 -32.56310000  9.29834000 
       97   1   -28.13510000 -31.08320000  10.72370000 
       98   2   -29.55350000 -29.55350000  12.15970000 
       99   1   -28.06370000 -28.06370000  13.56410000 
      100   2   -29.47680000 -26.53160000  14.99960000 
      101   2   -26.63690000 -38.49970000  6.58110000 
      102   1   -25.21110000 -37.00830000  7.98873000 
      103   2   -26.64970000 -35.44770000  9.36046000 
      104   1   -25.14430000 -33.97880000  10.77290000 
      105   2   -26.58920000 -32.45950000  12.18450000 
      106   1   -25.08050000 -30.99550000  13.59290000 
      107   2   -26.53160000 -29.47680000  14.99960000 
      108   2   -23.69260000 -38.26370000  9.51832000 
      109   1   -22.14810000 -36.85570000  10.87810000 
      110   2   -23.60090000 -35.32610000  12.26000000 
      111   1   -22.07180000 -33.88810000  13.66750000 
      112   2   -23.54200000 -32.37810000  15.05400000 
      113   2   -20.62080000 -38.15010000  12.36490000 
      114   1   -19.07710000 -36.76940000  13.75250000 
      115   2   -20.53510000 -35.25700000  15.14410000 
      116   2   -17.55030000 -38.07570000  15.23010000 
      117   1   -37.05770000 -37.05770000 -11.08190000 
      118   2   -38.51330000 -35.65310000 -9.62778000 
      119   1   -37.18400000 -34.27440000 -8.01789000 
      120   2   -38.63360000 -32.91760000 -6.50532000 
      121   3   -37.33760000 -31.36100000 -4.82109000 
      122   2   -38.80820000 -29.85610000 -3.23292000 
      123   3   -37.43400000 -28.35350000 -1.55780000 
      124   2   -38.84810000 -26.85020000  0.08557000 
      125   3   -37.43090000 -25.31970000  1.70060000 
      126   2   -38.78600000 -23.82230000  3.39834000 
      127   3   -37.30450000 -22.28150000  4.94229000 
      128   2   -38.54070000 -20.64930000  6.59870000 
      129   1   -37.03450000 -19.23190000  7.99621000 
      130   2   -38.29320000 -17.71700000  9.52518000 
      131   1   -36.87660000 -16.17690000  10.87820000 
      132   2   -38.16890000 -14.65390000  12.37000000 
      133   1   -36.77900000 -13.12090000  13.75880000 
      134   2   -38.08120000 -11.59620000  15.24210000 
      135   2   -35.65310000 -38.51330000 -9.62778000 
      136   1   -34.27440000 -37.18400000 -8.01789000 
      137   2   -35.80580000 -35.80580000 -6.55630000 
      138   3   -34.36850000 -34.36850000 -4.80679000 
      139   2   -35.88770000 -32.88840000 -3.18243000 
      140   3   -34.40980000 -31.37810000 -1.55280000 
      141   2   -35.90610000 -29.84780000  0.04208270 
      142   3   -34.39050000 -28.33180000  1.63385000 
      143   2   -35.83190000 -26.78660000  3.25317000 
      144   3   -34.29080000 -25.28620000  4.83304000 
      145   2   -35.65630000 -23.70560000  6.48544000 
      146   1   -34.13150000 -22.23490000  7.87686000 
      147   2   -35.47690000 -20.68420000  9.35683000 
      148   1   -34.00000000 -19.17940000  10.75900000 
      149   2   -35.34740000 -17.64010000  12.24940000 
      150   1   -33.90310000 -16.11940000  13.65990000 
      151   2   -35.26940000 -14.58860000  15.14450000 
      152   2   -32.91760000 -38.63360000 -6.50532000 
      153   3   -31.36100000 -37.33760000 -4.82109000 
      154   2   -32.88840000 -35.88770000 -3.18243000 
      155   3   -31.37810000 -34.40980000 -1.55280000 
      156   2   -32.87310000 -32.87310000  0.02692990 
      157   3   -31.35730000 -31.35730000  1.61269000 
      158   2   -32.80310000 -29.78570000  3.19728000 
      159   3   -31.28810000 -28.28940000  4.80025000 
      160   2   -32.69430000 -26.71340000  6.41887000 
      161   1   -31.19330000 -25.23740000  7.83282000 
      162   2   -32.58080000 -23.67640000  9.26952000 
      163   1   -31.09920000 -22.18670000  10.68810000 
      164   2   -32.47520000 -20.63970000  12.14770000 
      165   1   -31.01270000 -19.13680000  13.56120000 
      166   2   -32.39230000 -17.60450000  15.03080000 
      167   2   -29.85610000 -38.80820000 -3.23292000 
      168   3   -28.35350000 -37.43400000 -1.55780000 
      169   2   -29.84780000 -35.90610000  0.04208270 
      170   3   -28.33180000 -34.39050000  1.63385000 
      171   2   -29.78570000 -32.80310000  3.19728000 
      172   3   -28.28940000 -31.28810000  4.80025000 
      173   2   -29.71730000 -29.71730000  6.40725000 
      174   1   -28.22830000 -28.22830000  7.82271000 
      175   2   -29.64920000 -26.67720000  9.23935000 
      176   1   -28.16260000 -25.18930000  10.65660000 
      177   2   -29.57040000 -23.64160000  12.08610000 
      178   1   -28.09210000 -22.14770000  13.49530000 
      179   2   -29.49330000 -20.61250000  14.93950000 
      180   2   -26.85020000 -38.84810000  0.08557000 
      181   3   -25.31970000 -37.43090000  1.70060000 
      182   2   -26.78660000 -35.83190000  3.25317000 
      183   3   -25.28620000 -34.29080000  4.83304000 
      184   2   -26.71340000 -32.69430000  6.41887000 
      185   1   -25.23740000 -31.19330000  7.83282000 
      186   2   -26.67720000 -29.64920000  9.23935000 
      187   1   -25.18930000 -28.16260000  10.65660000 
      188   2   -26.62590000 -26.62590000  12.06730000 
      189   1   -25.13700000 -25.13700000  13.47250000 
      190   2   -26.56440000 -23.60190000  14.88980000 
      191   2   -23.82230000 -38.78600000  3.39834000 
      192   3   -22.28150000 -37.30450000  4.94229000 
      193   2   -23.70560000 -35.65630000  6.48544000 
      194   1   -22.23490000 -34.13150000  7.87686000 
      195   2   -23.67640000 -32.58080000  9.26952000 
      196   1   -22.18670000 -31.09920000  10.68810000 
      197   2   -23.64160000 -29.57040000  12.08610000 
      198   1   -22.14770000 -28.09210000  13.49530000 
      199   2   -23.60190000 -26.56440000  14.88980000 
      200   2   -20.64930000 -38.54070000  6.59870000 
      201   1   -19.23190000 -37.03450000  7.99621000 
      202   2   -20.68420000 -35.47690000  9.35683000 
      203   1   -19.17940000 -34.00000000  10.75900000 
      204   2   -20.63970000 -32.47520000  12.14770000 
      205   1   -19.13680000 -31.01270000  13.56120000 
      206   2   -20.61250000 -29.49330000  14.93950000 
      207   2   -17.71700000 -38.29320000  9.52518000 
      208   1   -16.17690000 -36.87660000  10.87820000 
      209   2   -17.64010000 -35.34740000  12.24940000 
      210   1   -16.11940000 -33.90310000  13.65990000 
      211   2   -17.60450000 -32.39230000  15.03080000 
      212   2   -14.65390000 -38.16890000  12.37000000 
      213   1   -13.12090000 -36.77900000  13.75880000 
      214   2   -14.58860000 -35.26940000  15.14450000 
      215   2   -11.59620000 -38.08120000  15.24210000 
      216   2   -38.41740000 -35.55570000 -15.42940000 
      217   1   -37.04310000 -34.12840000 -13.90430000 
      218   2   -38.37540000 -32.66770000 -12.38800000 
      219   1   -37.01740000 -31.25990000 -10.84340000 
      220   2   -38.41830000 -29.77790000 -9.41416000 
      221   1   -37.10330000 -28.33830000 -7.86303000 
      222   2   -38.61430000 -26.96490000 -6.43054000 
      223   3   -37.34160000 -25.35380000 -4.78655000 
      224   2   -38.83570000 -23.85100000 -3.22165000 
      225   3   -37.46140000 -22.34850000 -1.54862000 
      226   2   -38.88680000 -20.84770000  0.08543640 
      227   3   -37.46100000 -19.32890000  1.70248000 
      228   2   -38.82180000 -17.83210000  3.39437000 
      229   3   -37.33040000 -16.30200000  4.93808000 
      230   2   -38.56900000 -14.67120000  6.59181000 
      231   1   -37.05570000 -13.26250000  7.98852000 
      232   2   -38.31390000 -11.74970000  9.51914000 
      233   1   -36.88770000 -10.22190000  10.87450000 
      234   2   -38.18150000 -8.70425000  12.36960000 
      235   1   -36.78190000 -7.18236000  13.76050000 
      236   2   -38.08580000 -5.66764000  15.25210000 
      237   2   -35.55570000 -38.41740000 -15.42940000 
      238   1   -34.12840000 -37.04310000 -13.90430000 
      239   2   -35.57410000 -35.57410000 -12.45600000 
      240   1   -34.18370000 -34.18370000 -10.85060000 
      241   2   -35.64670000 -32.76440000 -9.34977000 
      242   1   -34.24170000 -31.31520000 -7.81754000 
      243   2   -35.75340000 -29.87690000 -6.38310000 
      244   3   -34.34380000 -28.34720000 -4.72167000 
      245   2   -35.88740000 -26.85810000 -3.13801000 
      246   3   -34.41940000 -25.33710000 -1.52412000 
      247   2   -35.93910000 -23.83080000  0.06613710 
      248   3   -34.41370000 -22.32480000  1.65078000 
      249   2   -35.86980000 -20.79380000  3.26666000 
      250   3   -34.31560000 -19.30010000  4.83705000 
      251   2   -35.68790000 -17.72670000  6.48738000 
      252   1   -34.15460000 -16.26100000  7.87209000 
      253   2   -35.50120000 -14.71420000  9.35325000 
      254   1   -34.01640000 -13.21870000  10.75600000 
      255   2   -35.36190000 -11.68370000  12.25040000 
      256   1   -33.90860000 -10.17350000  13.66150000 
      257   2   -35.27340000 -8.64755000  15.15060000 
      258   2   -32.66770000 -38.37540000 -12.38800000 
      259   1   -31.25990000 -37.01740000 -10.84340000 
      260   2   -32.76440000 -35.64670000 -9.34977000 
      261   1   -31.31520000 -34.24170000 -7.81754000 
      262   2   -32.83450000 -32.83450000 -6.36487000 
      263   3   -31.35540000 -31.35540000 -4.71779000 
      264   2   -32.87550000 -29.87120000 -3.11951000 
      265   3   -31.38140000 -28.35320000 -1.53124000 
      266   2   -32.88350000 -26.83060000  0.04708910 
      267   3   -31.36670000 -25.32720000  1.62986000 
      268   2   -32.83280000 -23.78260000  3.21416000 
      269   3   -31.30660000 -22.29830000  4.80949000 
      270   2   -32.72390000 -20.73210000  6.42199000 
      271   1   -31.21320000 -19.26010000  7.82597000 
      272   2   -32.60450000 -17.70450000  9.26147000 
      273   1   -31.11790000 -16.22230000  10.67940000 
      274   2   -32.49280000 -14.68100000  12.14350000 
      275   1   -31.02280000 -13.18880000  13.55870000 
      276   2   -32.40040000 -11.66120000  15.03270000 
      277   2   -29.77790000 -38.41830000 -9.41416000 
      278   1   -28.33830000 -37.10330000 -7.86303000 
      279   2   -29.87690000 -35.75340000 -6.38310000 
      280   3   -28.34720000 -34.34380000 -4.72167000 
      281   2   -29.87120000 -32.87550000 -3.11951000 
      282   3   -28.35320000 -31.38140000 -1.53124000 
      283   2   -29.84830000 -29.84830000  0.03895040 
      284   3   -28.33960000 -28.33960000  1.62307000 
      285   2   -29.80660000 -26.79150000  3.20035000 
      286   3   -28.30230000 -25.30040000  4.80446000 
      287   2   -29.74450000 -23.74510000  6.40484000 
      288   1   -28.24610000 -22.26380000  7.81037000 
      289   2   -29.67040000 -20.71180000  9.21896000 
      290   1   -28.18170000 -19.22920000  10.63450000 
      291   2   -29.58890000 -17.68580000  12.06660000 
      292   1   -28.10700000 -16.20280000  13.48240000 
      293   2   -29.50690000 -14.67230000  14.93280000 
      294   2   -26.96490000 -38.61430000 -6.43054000 
      295   3   -25.35380000 -37.34160000 -4.78655000 
      296   2   -26.85810000 -35.88740000 -3.13801000 
      297   3   -25.33710000 -34.41940000 -1.52412000 
      298   2   -26.83060000 -32.88350000  0.04708910 
      299   3   -25.32720000 -31.36670000  1.62986000 
      300   2   -26.79150000 -29.80660000  3.20035000 
      301   3   -25.30040000 -28.30230000  4.80446000 
      302   2   -26.75290000 -26.75290000  6.40328000 
      303   1   -25.26240000 -25.26240000  7.80711000 
      304   2   -26.70870000 -23.71910000  9.20488000 
      305   1   -25.21830000 -22.23140000  10.61420000 
      306   2   -26.65050000 -20.69030000  12.02390000 
      307   1   -25.16390000 -19.20820000  13.43660000 
      308   2   -26.58530000 -17.67640000  14.86290000 
      309   2   -23.85100000 -38.83570000 -3.22165000 
      310   3   -22.34850000 -37.46140000 -1.54862000 
      311   2   -23.83080000 -35.93910000  0.06613710 
      312   3   -22.32480000 -34.41370000  1.65078000 
      313   2   -23.78260000 -32.83280000  3.21416000 
      314   3   -22.29830000 -31.30660000  4.80949000 
      315   2   -23.74510000 -29.74450000  6.40484000 
      316   1   -22.26380000 -28.24610000  7.81037000 
      317   2   -23.71910000 -26.70870000  9.20488000 
      318   1   -22.23140000 -25.21830000  10.61420000 
      319   2   -23.68200000 -23.68200000  12.01050000 
      320   1   -22.19690000 -22.19690000  13.42120000 
      321   2   -23.63840000 -20.66830000  14.82830000 
      322   2   -20.84770000 -38.88680000  0.08543640 
      323   3   -19.32890000 -37.46100000  1.70248000 
      324   2   -20.79380000 -35.86980000  3.26666000 
      325   3   -19.30010000 -34.31560000  4.83705000 
      326   2   -20.73210000 -32.72390000  6.42199000 
      327   1   -19.26010000 -31.21320000  7.82597000 
      328   2   -20.71180000 -29.67040000  9.21896000 
      329   1   -19.22920000 -28.18170000  10.63450000 
      330   2   -20.69030000 -26.65050000  12.02390000 
      331   1   -19.20820000 -25.16390000  13.43660000 
      332   2   -20.66830000 -23.63840000  14.82830000 
      333   2   -17.83210000 -38.82180000  3.39437000 
      334   3   -16.30200000 -37.33040000  4.93808000 
      335   2   -17.72670000 -35.68790000  6.48738000 
      336   1   -16.26100000 -34.15460000  7.87209000 
      337   2   -17.70450000 -32.60450000  9.26147000 
      338   1   -16.22230000 -31.11790000  10.67940000 
      339   2   -17.68580000 -29.58890000  12.06660000 
      340   1   -16.20280000 -28.10700000  13.48240000 
      341   2   -17.67640000 -26.58530000  14.86290000 
      342   2   -14.67120000 -38.56900000  6.59181000 
      343   1   -13.26250000 -37.05570000  7.98852000 
      344   2   -14.71420000 -35.50120000  9.35325000 
      345   1   -13.21870000 -34.01640000  10.75600000 
      346   2   -14.68100000 -32.49280000  12.14350000 
      347   1   -13.18880000 -31.02280000  13.55870000 
      348   2   -14.67230000 -29.50690000  14.93280000 
      349   2   -11.74970000 -38.31390000  9.51914000 
      350   1   -10.22190000 -36.88770000  10.87450000 
      351   2   -11.68370000 -35.36190000  12.25040000 
      352   1   -10.17350000 -33.90860000  13.66150000 
      353   2   -11.66120000 -32.40040000  15.03270000 
      354   2   -8.70425000 -38.18150000  12.36960000 
      355   1   -7.18236000 -36.78190000  13.76050000 
      356   2   -8.64755000 -35.27340000  15.15060000 
      357   2   -5.66764000 -38.08580000  15.25210000 
      358   2   -38.29990000 -29.72300000 -15.21330000 
      359   1   -36.93290000 -28.29320000 -13.69790000 
      360   2   -38.31970000 -26.81160000 -12.25490000 
      361   1   -36.96710000 -25.35620000 -10.75390000 
      362   2   -38.39930000 -23.85860000 -9.37355000 
      363   1   -37.09700000 -22.37710000 -7.85294000 
      364   2   -38.62150000 -20.99940000 -6.43968000 
      365   3   -37.35780000 -19.37730000 -4.80000000 
      366   2   -38.85710000 -17.87130000 -3.24249000 
      367   3   -37.48410000 -16.37380000 -1.56419000 
      368   2   -38.90930000 -14.87220000  0.06833550 
      369   3   -37.48140000 -13.35940000  1.68870000 
      370   2   -38.84290000 -11.86210000  3.37986000 
      371   3   -37.34700000 -10.33710000  4.92447000 
      372   2   -38.58660000 -8.70691000  6.57784000 
      373   1   -37.06580000 -7.30903000  7.97712000 
      374   2   -38.32620000 -5.80137000  9.51036000 
      375   1   -36.89040000 -4.28446000  10.86650000 
      376   2   -38.18760000 -2.77441000  12.36500000 
      377   1   -36.78160000 -1.25801000  13.75390000 
      378   2   -38.09280000  0.25053800  15.24470000 
      379   2   -35.51360000 -32.64840000 -15.25370000 
      380   1   -34.09560000 -31.22560000 -13.70740000 
      381   2   -35.51850000 -29.76620000 -12.21800000 
      382   1   -34.12080000 -28.31390000 -10.68930000 
      383   2   -35.59690000 -26.85000000 -9.24866000 
      384   1   -34.21100000 -25.34970000 -7.75929000 
      385   2   -35.74590000 -23.90040000 -6.36100000 
      386   3   -34.34890000 -22.35070000 -4.71284000 
      387   2   -35.90780000 -20.86950000 -3.13806000 
      388   3   -34.43830000 -19.35000000 -1.52608000 
      389   2   -35.96650000 -17.84970000  0.06054280 
      390   3   -34.43500000 -16.34860000  1.64270000 
      391   2   -35.89330000 -14.82130000  3.25838000 
      392   3   -34.33470000 -13.33170000  4.82665000 
      393   2   -35.70740000 -11.76100000  6.47752000 
      394   1   -34.16710000 -10.30310000  7.86247000 
      395   2   -35.51490000 -8.76103000  9.34599000 
      396   1   -34.02150000 -7.27498000  10.74820000 
      397   2   -35.36880000 -5.74694000  12.24600000 
      398   1   -33.91000000 -4.24262000  13.65610000 
      399   2   -35.27680000 -2.72294000  15.14780000 
      400   2   -32.64840000 -35.51360000 -15.25370000 
      401   1   -31.22560000 -34.09560000 -13.70740000 
      402   2   -32.67450000 -32.67450000 -12.20560000 
      403   1   -31.24670000 -31.24670000 -10.67430000 
      404   2   -32.73220000 -29.81810000 -9.20416000 
      405   1   -31.29250000 -28.33470000 -7.73891000 
      406   2   -32.80100000 -26.87540000 -6.32214000 
      407   3   -31.35110000 -25.34860000 -4.70177000 
      408   2   -32.87730000 -23.86430000 -3.11066000 
      409   3   -31.39020000 -22.34430000 -1.52565000 
      410   2   -32.90490000 -20.83730000  0.05280010 
      411   3   -31.38260000 -19.33800000  1.63135000 
      412   2   -32.85770000 -17.80130000  3.21295000 
      413   3   -31.32500000 -16.32120000  4.80275000 
      414   2   -32.74570000 -14.76120000  6.41593000 
      415   1   -31.22940000 -13.29570000  7.81889000 
      416   2   -32.62090000 -11.74550000  9.25708000 
      417   1   -31.12560000 -10.27230000  10.67420000 
      418   2   -32.50160000 -8.73610000  12.14070000 
      419   1   -31.02450000 -7.25020000  13.55460000 
      420   2   -32.40250000 -5.72687000  15.03120000 
      421   2   -29.72300000 -38.29990000 -15.21330000 
      422   1   -28.29320000 -36.93290000 -13.69790000 
      423   2   -29.76620000 -35.51850000 -12.21800000 
      424   1   -28.31390000 -34.12080000 -10.68930000 
      425   2   -29.81810000 -32.73220000 -9.20416000 
      426   1   -28.33470000 -31.29250000 -7.73891000 
      427   2   -29.84760000 -29.84760000 -6.31662000 
      428   3   -28.35350000 -28.35350000 -4.70568000 
      429   2   -29.86240000 -26.86020000 -3.11400000 
      430   3   -28.36210000 -25.34980000 -1.53406000 
      431   2   -29.86020000 -23.83410000  0.04423010 
      432   3   -28.35090000 -22.33590000  1.62929000 
      433   2   -29.82790000 -20.80170000  3.20586000 
      434   3   -28.31660000 -19.31530000  4.80337000 
      435   2   -29.76540000 -17.76630000  6.40035000 
      436   1   -28.26180000 -16.29120000  7.80352000 
      437   2   -29.68840000 -14.74560000  9.21405000 
      438   1   -28.19340000 -13.27250000  10.63150000 
      439   2   -29.60090000 -11.73460000  12.06640000 
      440   1   -28.11200000 -10.25930000  13.48100000 
      441   2   -29.51110000 -8.73203000  14.93310000 
      442   2   -26.81160000 -38.31970000 -12.25490000 
      443   1   -25.35620000 -36.96710000 -10.75390000 
      444   2   -26.85000000 -35.59690000 -9.24866000 
      445   1   -25.34970000 -34.21100000 -7.75929000 
      446   2   -26.87540000 -32.80100000 -6.32214000 
      447   3   -25.34860000 -31.35110000 -4.70177000 
      448   2   -26.86020000 -29.86240000 -3.11400000 
      449   3   -25.34980000 -28.36210000 -1.53406000 
      450   2   -26.83960000 -26.83960000  0.04031000 
      451   3   -25.33930000 -25.33930000  1.62797000 
      452   2   -26.81440000 -23.80850000  3.20783000 
      453   3   -25.31530000 -22.31630000  4.80698000 
      454   2   -26.77550000 -20.77540000  6.40114000 
      455   1   -25.27880000 -19.29040000  7.79894000 
      456   2   -26.72740000 -17.75120000  9.19411000 
      457   1   -25.23430000 -16.27200000  10.60670000 
      458   2   -26.66570000 -14.73620000  12.02060000 
      459   1   -25.17400000 -13.26380000  13.43570000 
      460   2   -26.59510000 -11.73560000  14.86380000 
      461   2   -23.85860000 -38.39930000 -9.37355000 
      462   1   -22.37710000 -37.09700000 -7.85294000 
      463   2   -23.90040000 -35.74590000 -6.36100000 
      464   3   -22.35070000 -34.34890000 -4.71284000 
      465   2   -23.86430000 -32.87730000 -3.11066000 
      466   3   -22.34430000 -31.39020000 -1.52565000 
      467   2   -23.83410000 -29.86020000  0.04423010 
      468   3   -22.33590000 -28.35090000  1.62929000 
      469   2   -23.80850000 -26.81440000  3.20783000 
      470   3   -22.31630000 -25.31530000  4.80698000 
      471   2   -23.78020000 -23.78020000  6.40280000 
      472   1   -22.28920000 -22.28920000  7.79801000 
      473   2   -23.74810000 -20.75510000  9.18700000 
      474   1   -22.25810000 -19.26930000  10.59380000 
      475   2   -23.70630000 -17.73740000  11.99440000 
      476   1   -22.21820000 -16.26240000  13.41080000 
      477   2   -23.65690000 -14.73660000  14.82380000 
      478   2   -20.99940000 -38.62150000 -6.43968000 
      479   3   -19.37730000 -37.35780000 -4.80000000 
      480   2   -20.86950000 -35.90780000 -3.13806000 
      481   3   -19.35000000 -34.43830000 -1.52608000 
      482   2   -20.83730000 -32.90490000  0.05280010 
      483   3   -19.33800000 -31.38260000  1.63135000 
      484   2   -20.80170000 -29.82790000  3.20586000 
      485   3   -19.31530000 -28.31660000  4.80337000 
      486   2   -20.77540000 -26.77550000  6.40114000 
      487   1   -19.29040000 -25.27880000  7.79894000 
      488   2   -20.75510000 -23.74810000  9.18700000 
      489   1   -19.26930000 -22.25810000  10.59380000 
      490   2   -20.72980000 -20.72980000  11.98540000 
      491   1   -19.24830000 -19.24830000  13.40250000 
      492   2   -20.70130000 -17.72760000  14.80580000 
      493   2   -17.87130000 -38.85710000 -3.24249000 
      494   3   -16.37380000 -37.48410000 -1.56419000 
      495   2   -17.84970000 -35.96650000  0.06054280 
      496   3   -16.34860000 -34.43500000  1.64270000 
      497   2   -17.80130000 -32.85770000  3.21295000 
      498   3   -16.32120000 -31.32500000  4.80275000 
      499   2   -17.76630000 -29.76540000  6.40035000 
      500   1   -16.29120000 -28.26180000  7.80352000 
      501   2   -17.75120000 -26.72740000  9.19411000 
      502   1   -16.27200000 -25.23430000  10.60670000 
      503   2   -17.73740000 -23.70630000  11.99440000 
      504   1   -16.26240000 -22.21820000  13.41080000 
      505   2   -17.72760000 -20.70130000  14.80580000 
      506   2   -14.87220000 -38.90930000  0.06833550 
      507   3   -13.35940000 -37.48140000  1.68870000 
      508   2   -14.82130000 -35.89330000  3.25838000 
      509   3   -13.33170000 -34.33470000  4.82665000 
      510   2   -14.76120000 -32.74570000  6.41593000 
      511   1   -13.29570000 -31.22940000  7.81889000 
      512   2   -14.74560000 -29.68840000  9.21405000 
      513   1   -13.27250000 -28.19340000  10.63150000 
      514   2   -14.73620000 -26.66570000  12.02060000 
      515   1   -13.26380000 -25.17400000  13.43570000 
      516   2   -14.73660000 -23.65690000  14.82380000 
      517   2   -11.86210000 -38.84290000  3.37986000 
      518   3   -10.33710000 -37.34700000  4.92447000 
      519   2   -11.76100000 -35.70740000  6.47752000 
      520   1   -10.30310000 -34.16710000  7.86247000 
      521   2   -11.74550000 -32.62090000  9.25708000 
      522   1   -10.27230000 -31.12560000  10.67420000 
      523   2   -11.73460000 -29.60090000  12.06640000 
      524   1   -10.25930000 -28.11200000  13.48100000 
      525   2   -11.73560000 -26.59510000  14.86380000 
      526   2   -8.70691000 -38.58660000  6.57784000 
      527   1   -7.30903000 -37.06580000  7.97712000 
      528   2   -8.76103000 -35.51490000  9.34599000 
      529   1   -7.27498000 -34.02150000  10.74820000 
      530   2   -8.73610000 -32.50160000  12.14070000 
      531   1   -7.25020000 -31.02450000  13.55460000 
      532   2   -8.73203000 -29.51110000  14.93310000 
      533   2   -5.80137000 -38.32620000  9.51036000 
      534   1   -4.28446000 -36.89040000  10.86650000 
      535   2   -5.74694000 -35.36880000  12.24600000 
      536   1   -4.24262000 -33.91000000  13.65610000 
      537   2   -5.72687000 -32.40250000  15.03120000 
      538   2   -2.77441000 -38.18760000  12.36500000 