LAMMPS configuration data file

  3331 atoms

  5 atom types

  -42.120198  42.120198  xlo xhi
  -42.120198  42.120198  ylo yhi
  -42.120198  42.120198  zlo zhi

 Masses

  1   32.065
  2   112.411
  3   78.960
  4   1.000
  5   1.000

 Atoms

        1   1   -17.68099872 -14.73869894  8.84446936 
        2   1   -17.68049872 -11.79109915  11.79109915 
        3   1   -17.68099872 -8.84446936  14.73869894 
        4   1   -14.73869894 -17.68099872  8.84446936 
        5   2   -16.19589883 -16.19589883  10.30339926 
        6   1   -14.74299894 -14.74299894  11.79339915 
        7   2   -16.19409883 -13.24829904  13.24829904 
        8   1   -14.74299894 -11.79339915  14.74299894 
        9   2   -16.19589883 -10.30339926  16.19589883 
       10   1   -14.73869894 -8.84446936  17.68099872 
       11   1   -11.79109915 -17.68049872  11.79109915 
       12   2   -13.24829904 -16.19409883  13.24829904 
       13   1   -11.79339915 -14.74299894  14.74299894 
       14   2   -13.24829904 -13.24829904  16.19409883 
       15   1   -11.79109915 -11.79109915  17.68049872 
       16   1   -8.84446936 -17.68099872  14.73869894 
       17   2   -10.30339926 -16.19589883  16.19589883 
       18   1   -8.84446936 -14.73869894  17.68099872 
       19   1   -20.61459851 -14.73789894 -0.00295363 
       20   1   -20.62639851 -11.80299915  2.94600979 
       21   1   -20.63689851 -8.85906936  5.90566957 
       22   1   -20.63689851 -5.90566957  8.85906936 
       23   1   -20.62639851 -2.94600979  11.80299915 
       24   1   -20.61459851  0.00295362  14.73789894 
       25   1   -17.68199872 -17.68199872 -0.00417697 
       26   2   -19.14479862 -16.20659883  1.45935990 
       27   1   -17.69959872 -14.75759894  2.94671979 
       28   2   -19.15649862 -13.27259904  4.41042968 
       29   1   -17.71859872 -11.82169915  5.90982957 
       30   2   -19.16389862 -10.32589926  7.37083947 
       31   1   -17.72139872 -8.86875936  8.86875936 
       32   2   -19.16389862 -7.37083947  10.32589926 
       33   1   -17.71859872 -5.90982957  11.82169915 
       34   2   -19.15649862 -4.41042968  13.27259904 
       35   1   -17.69959872 -2.94671979  14.75759894 
       36   2   -19.14479862 -1.45935990  16.20659883 
       37   1   -17.68199872  0.00417696  17.68199872 
       38   1   -14.73789894 -20.61459851 -0.00295363 
       39   2   -16.20659883 -19.14479862  1.45935990 
       40   1   -14.75759894 -17.69959872  2.94671979 
       41   2   -16.22249883 -16.22249883  4.41075968 
       42   1   -14.78099893 -14.78099893  5.91386957 
       43   2   -16.23979883 -13.29019904  7.37163947 
       44   1   -14.79879893 -11.84439915  8.87422936 
       45   2   -16.23649883 -10.33049926  10.33049926 
       46   1   -14.79879893 -8.87422936  11.84439915 
       47   2   -16.23979883 -7.37163947  13.29019904 
       48   1   -14.78099893 -5.91386957  14.78099893 
       49   2   -16.22249883 -4.41075968  16.22249883 
       50   1   -14.75759894 -2.94671979  17.69959872 
       51   2   -16.20659883 -1.45935990  19.14479862 
       52   1   -14.73789894  0.00295362  20.61459851 
       53   1   -11.80299915 -20.62639851  2.94600979 
       54   2   -13.27259904 -19.15649862  4.41042968 
       55   1   -11.82169915 -17.71859872  5.90982957 
       56   2   -13.29019904 -16.23979883  7.37163947 
       57   1   -11.84439915 -14.79879893  8.87422936 
       58   2   -13.29539904 -13.29539904  10.33079925 
       59   1   -11.85649914 -11.85649914  11.85649914 
       60   2   -13.29539904 -10.33079925  13.29539904 
       61   1   -11.84439915 -8.87422936  14.79879893 
       62   2   -13.29019904 -7.37163947  16.23979883 
       63   1   -11.82169915 -5.90982957  17.71859872 
       64   2   -13.27259904 -4.41042968  19.15649862 
       65   1   -11.80299915 -2.94600979  20.62639851 
       66   1   -8.85906936 -20.63689851  5.90566957 
       67   2   -10.32589926 -19.16389862  7.37083947 
       68   1   -8.86875936 -17.72139872  8.86875936 
       69   2   -10.33049926 -16.23649883  10.33049926 
       70   1   -8.87422936 -14.79879893  11.84439915 
       71   2   -10.33079925 -13.29539904  13.29539904 
       72   1   -8.87422936 -11.84439915  14.79879893 
       73   2   -10.33049926 -10.33049926  16.23649883 
       74   1   -8.86875936 -8.86875936  17.72139872 
       75   2   -10.32589926 -7.37083947  19.16389862 
       76   1   -8.85906936 -5.90566957  20.63689851 
       77   1   -5.90566957 -20.63689851  8.85906936 
       78   2   -7.37083947 -19.16389862  10.32589926 
       79   1   -5.90982957 -17.71859872  11.82169915 
       80   2   -7.37163947 -16.23979883  13.29019904 
       81   1   -5.91386957 -14.78099893  14.78099893 
       82   2   -7.37163947 -13.29019904  16.23979883 
       83   1   -5.90982957 -11.82169915  17.71859872 
       84   2   -7.37083947 -10.32589926  19.16389862 
       85   1   -5.90566957 -8.85906936  20.63689851 
       86   1   -2.94600979 -20.62639851  11.80299915 
       87   2   -4.41042968 -19.15649862  13.27259904 
       88   1   -2.94671979 -17.69959872  14.75759894 
       89   2   -4.41075968 -16.22249883  16.22249883 
       90   1   -2.94671979 -14.75759894  17.69959872 
       91   2   -4.41042968 -13.27259904  19.15649862 
       92   1   -2.94600979 -11.80299915  20.62639851 
       93   1    0.00295362 -20.61459851  14.73789894 
       94   2   -1.45935990 -19.14479862  16.20659883 
       95   1    0.00417696 -17.68199872  17.68199872 
       96   2   -1.45935990 -16.20659883  19.14479862 
       97   1    0.00295362 -14.73789894  20.61459851 
       98   1   -20.63819851 -11.81189914 -2.96089979 
       99   2   -22.09059840 -10.32999925 -1.49103989 
      100   1   -20.65249851 -8.87025936 -0.00810866 
      101   2   -22.09699841 -7.38241947  1.46422989 
      102   1   -20.66729851 -5.91703957  2.95732979 
      103   2   -22.10329840 -4.42559968  4.42559968 
      104   1   -20.66729851 -2.95732979  5.91703957 
      105   2   -22.09699841 -1.46422989  7.38241947 
      106   1   -20.65249851  0.00810865  8.87025936 
      107   2   -22.09059840  1.49103989  10.32999925 
      108   1   -20.63819851  2.96089979  11.81189914 
      109   1   -17.68599872 -17.68599872 -5.90539957 
      110   2   -19.15759862 -16.21829883 -4.44150968 
      111   1   -17.71089872 -14.76819893 -2.96665979 
      112   2   -19.17899861 -13.29529904 -1.49994989 
      113   1   -17.74239872 -11.84659915 -0.01451840 
      114   2   -19.19459861 -10.35359926  1.45541990 
      115   1   -17.77779872 -8.89607936  2.96398978 
      116   2   -19.21179861 -7.39541947  4.43003968 
      117   1   -17.78349872 -5.93511957  5.93511957 
      118   2   -19.21179861 -4.43003968  7.39541947 
      119   1   -17.77779872 -2.96398978  8.89607936 
      120   2   -19.19459861 -1.45541990  10.35359926 
      121   1   -17.74239872  0.01451840  11.84659915 
      122   2   -19.17899861  1.49994989  13.29529904 
      123   1   -17.71089872  2.96665979  14.76819893 
      124   2   -19.15759862  4.44150968  16.21829883 
      125   1   -17.68599872  5.90539957  17.68599872 
      126   2   -16.21829883 -19.15759862 -4.44150968 
      127   1   -14.76819893 -17.71089872 -2.96665979 
      128   2   -16.24389883 -16.24389883 -1.50249989 
      129   1   -14.80169893 -14.80169893 -0.01591030 
      130   2   -16.26439883 -13.31579904  1.45260990 
      131   1   -14.84179893 -11.87959914  2.97877978 
      132   2   -16.29369882 -10.36759925  4.42608968 
      133   1   -14.86559893 -8.92316936  5.94252957 
      134   2   -16.29469883 -7.40204946  7.40204946 
      135   1   -14.86559893 -5.94252957  8.92316936 
      136   2   -16.29369882 -4.42608968  10.36759925 
      137   1   -14.84179893 -2.97877978  11.87959914 
      138   2   -16.26439883 -1.45260990  13.31579904 
      139   1   -14.80169893  0.01591030  14.80169893 
      140   2   -16.24389883  1.50249989  16.24389883 
      141   1   -14.76819893  2.96665979  17.71089872 
      142   2   -16.21829883  4.44150968  19.15759862 
      143   1   -11.81189914 -20.63819851 -2.96089979 
      144   2   -13.29529904 -19.17899861 -1.49994989 
      145   1   -11.84659915 -17.74239872 -0.01451840 
      146   2   -13.31579904 -16.26439883  1.45260990 
      147   1   -11.87959914 -14.84179893  2.97877978 
      148   2   -13.34419904 -13.34419904  4.42837968 
      149   1   -11.90809914 -11.90809914  5.93803957 
      150   2   -13.38589903 -10.41509925  7.37207947 
      151   3   -11.92289914 -8.92355935  8.92355935 
      152   2   -13.38589903 -7.37207947  10.41509925 
      153   1   -11.90809914 -5.93803957  11.90809914 
      154   2   -13.34419904 -4.42837968  13.34419904 
      155   1   -11.87959914 -2.97877978  14.84179893 
      156   2   -13.31579904 -1.45260990  16.26439883 
      157   1   -11.84659915  0.01451840  17.74239872 
      158   2   -13.29529904  1.49994989  19.17899861 
      159   1   -11.81189914  2.96089979  20.63819851 
      160   2   -10.32999925 -22.09059840 -1.49103989 
      161   1   -8.87025936 -20.65249851 -0.00810866 
      162   2   -10.35359926 -19.19459861  1.45541990 
      163   1   -8.89607936 -17.77779872  2.96398978 
      164   2   -10.36759925 -16.29369882  4.42608968 
      165   1   -8.92316936 -14.86559893  5.94252957 
      166   2   -10.41509925 -13.38589903  7.37207947 
      167   3   -8.92355935 -11.92289914  8.92355935 
      168   2   -10.41689925 -10.41689925  10.41689925 
      169   3   -8.92355935 -8.92355935  11.92289914 
      170   2   -10.41509925 -7.37207947  13.38589903 
      171   1   -8.92316936 -5.94252957  14.86559893 
      172   2   -10.36759925 -4.42608968  16.29369882 
      173   1   -8.89607936 -2.96398978  17.77779872 
      174   2   -10.35359926 -1.45541990  19.19459861 
      175   1   -8.87025936  0.00810865  20.65249851 
      176   2   -10.32999925  1.49103989  22.09059840 
      177   2   -7.38241947 -22.09699841  1.46422989 
      178   1   -5.91703957 -20.66729851  2.95732979 
      179   2   -7.39541947 -19.21179861  4.43003968 
      180   1   -5.93511957 -17.78349872  5.93511957 
      181   2   -7.40204946 -16.29469883  7.40204946 
      182   1   -5.94252957 -14.86559893  8.92316936 
      183   2   -7.37207947 -13.38589903  10.41509925 
      184   1   -5.93803957 -11.90809914  11.90809914 
      185   2   -7.37207947 -10.41509925  13.38589903 
      186   1   -5.94252957 -8.92316936  14.86559893 
      187   2   -7.40204946 -7.40204946  16.29469883 
      188   1   -5.93511957 -5.93511957  17.78349872 
      189   2   -7.39541947 -4.43003968  19.21179861 
      190   1   -5.91703957 -2.95732979  20.66729851 
      191   2   -7.38241947 -1.46422989  22.09699841 
      192   2   -4.42559968 -22.10329840  4.42559968 
      193   1   -2.95732979 -20.66729851  5.91703957 
      194   2   -4.43003968 -19.21179861  7.39541947 
      195   1   -2.96398978 -17.77779872  8.89607936 
      196   2   -4.42608968 -16.29369882  10.36759925 
      197   1   -2.97877978 -14.84179893  11.87959914 
      198   2   -4.42837968 -13.34419904  13.34419904 
      199   1   -2.97877978 -11.87959914  14.84179893 
      200   2   -4.42608968 -10.36759925  16.29369882 
      201   1   -2.96398978 -8.89607936  17.77779872 
      202   2   -4.43003968 -7.39541947  19.21179861 
      203   1   -2.95732979 -5.91703957  20.66729851 
      204   2   -4.42559968 -4.42559968  22.10329840 
      205   2   -1.46422989 -22.09699841  7.38241947 
      206   1    0.00810865 -20.65249851  8.87025936 
      207   2   -1.45541990 -19.19459861  10.35359926 
      208   1    0.01451840 -17.74239872  11.84659915 
      209   2   -1.45260990 -16.26439883  13.31579904 
      210   1    0.01591030 -14.80169893  14.80169893 
      211   2   -1.45260990 -13.31579904  16.26439883 
      212   1    0.01451840 -11.84659915  17.74239872 
      213   2   -1.45541990 -10.35359926  19.19459861 
      214   1    0.00810865 -8.87025936  20.65249851 
      215   2   -1.46422989 -7.38241947  22.09699841 
      216   2    1.49103989 -22.09059840  10.32999925 
      217   1    2.96089979 -20.63819851  11.81189914 
      218   2    1.49994989 -19.17899861  13.29529904 
      219   1    2.96665979 -17.71089872  14.76819893 
      220   2    1.50249989 -16.24389883  16.24389883 
      221   1    2.96665979 -14.76819893  17.71089872 
      222   2    1.49994989 -13.29529904  19.17899861 
      223   1    2.96089979 -11.81189914  20.63819851 
      224   2    1.49103989 -10.32999925  22.09059840 
      225   2    4.44150968 -19.15759862  16.21829883 
      226   1    5.90539957 -17.68599872  17.68599872 
      227   2    4.44150968 -16.21829883  19.15759862 
      228   1   -20.65379851 -8.86960936 -5.91915957 
      229   2   -22.10429840 -7.39087946 -4.44347968 
      230   1   -20.67019851 -5.92260957 -2.96811979 
      231   2   -22.11209840 -4.43837968 -1.48856989 
      232   1   -20.68949851 -2.96044978 -0.00348795 
      233   2   -22.12019840 -1.47531990  1.47531990 
      234   1   -20.68949851  0.00348795  2.96044978 
      235   2   -22.11209840  1.48856989  4.43837968 
      236   1   -20.67019851  2.96811979  5.92260957 
      237   2   -22.10429840  4.44347968  7.39087946 
      238   1   -20.65379851  5.91915957  8.86960936 
      239   1   -17.70069872 -14.75659893 -8.85945936 
      240   2   -19.17649862 -13.29029904 -7.39852947 
      241   1   -17.73429872 -11.83489914 -5.93189957 
      242   2   -19.20779861 -10.36499925 -4.46556968 
      243   1   -17.78189872 -8.90786936 -2.98953978 
      244   2   -19.22769861 -7.41492946 -1.50779989 
      245   1   -17.82879872 -5.93408957 -0.01017280 
      246   2   -19.25419861 -4.44210968  1.47005990 
      247   1   -17.83829871 -2.96321978  2.96321978 
      248   2   -19.25419861 -1.47005990  4.44210968 
      249   1   -17.82879872  0.01017280  5.93408957 
      250   2   -19.22769861  1.50779989  7.41492946 
      251   1   -17.78189872  2.98953978  8.90786936 
      252   2   -19.20779861  4.46556968  10.36499925 
      253   1   -17.73429872  5.93189957  11.83489914 
      254   2   -19.17649862  7.39852947  13.29029904 
      255   1   -17.70069872  8.85945936  14.75659893 
      256   1   -14.75659893 -17.70069872 -8.85945936 
      257   2   -16.24109883 -16.24109883 -7.40333947 
      258   1   -14.79279893 -14.79279893 -5.93892957 
      259   2   -16.27859883 -13.33089904 -4.48098968 
      260   1   -14.84409893 -11.88719914 -3.00896978 
      261   2   -16.33559882 -10.42539925 -1.55655989 
      262   3   -14.89409893 -8.93743936 -0.01043310 
      263   2   -16.40099882 -7.42313946  1.46020990 
      264   3   -14.91009892 -5.95632957  2.97687978 
      265   2   -16.40999881 -4.44411968  4.44411968 
      266   3   -14.91009892 -2.97687978  5.95632957 
      267   2   -16.40099882 -1.46020990  7.42313946 
      268   3   -14.89409893  0.01043310  8.93743936 
      269   2   -16.33559882  1.55655989  10.42539925 
      270   1   -14.84409893  3.00896978  11.88719914 
      271   2   -16.27859883  4.48098968  13.33089904 
      272   1   -14.79279893  5.93892957  14.79279893 
      273   2   -16.24109883  7.40333947  16.24109883 
      274   1   -14.75659893  8.85945936  17.70069872 
      275   2   -13.29029904 -19.17649862 -7.39852947 
      276   1   -11.83489914 -17.73429872 -5.93189957 
      277   2   -13.33089904 -16.27859883 -4.48098968 
      278   1   -11.88719914 -14.84409893 -3.00896978 
      279   2   -13.38809903 -13.38809903 -1.56038989 
      280   3   -11.92379914 -11.92379914 -0.00773854 
      281   2   -13.42039903 -10.44209925  1.50126989 
      282   3   -11.93309914 -8.95265935  2.99522978 
      283   2   -13.43549903 -7.46743946  4.48660968 
      284   3   -11.93859914 -5.96450957  5.96450957 
      285   2   -13.43549903 -4.48660968  7.46743946 
      286   3   -11.93309914 -2.99522978  8.95265935 
      287   2   -13.42039903 -1.50126989  10.44209925 
      288   3   -11.92379914  0.00773854  11.92379914 
      289   2   -13.38809903  1.56038989  13.38809903 
      290   1   -11.88719914  3.00896978  14.84409893 
      291   2   -13.33089904  4.48098968  16.27859883 
      292   1   -11.83489914  5.93189957  17.73429872 
      293   2   -13.29029904  7.39852947  19.17649862 
      294   1   -8.86960936 -20.65379851 -5.91915957 
      295   2   -10.36499925 -19.20779861 -4.46556968 
      296   1   -8.90786936 -17.78189872 -2.98953978 
      297   2   -10.42539925 -16.33559882 -1.55655989 
      298   3   -8.93743936 -14.89409893 -0.01043310 
      299   2   -10.44209925 -13.42039903  1.50126989 
      300   3   -8.95265935 -11.93309914  2.99522978 
      301   2   -10.45679925 -10.45679925  4.49527967 
      302   3   -8.94979935 -8.94979935  5.95977957 
      303   2   -10.42799925 -7.44416946  7.44416946 
      304   3   -8.94979935 -5.95977957  8.94979935 
      305   2   -10.45679925 -4.49527967  10.45679925 
      306   3   -8.95265935 -2.99522978  11.93309914 
      307   2   -10.44209925 -1.50126989  13.42039903 
      308   3   -8.93743936  0.01043310  14.89409893 
      309   2   -10.42539925  1.55655989  16.33559882 
      310   1   -8.90786936  2.98953978  17.78189872 
      311   2   -10.36499925  4.46556968  19.20779861 
      312   1   -8.86960936  5.91915957  20.65379851 
      313   2   -7.39087946 -22.10429840 -4.44347968 
      314   1   -5.92260957 -20.67019851 -2.96811979 
      315   2   -7.41492946 -19.22769861 -1.50779989 
      316   1   -5.93408957 -17.82879872 -0.01017280 
      317   2   -7.42313946 -16.40099882  1.46020990 
      318   3   -5.95632957 -14.91009892  2.97687978 
      319   2   -7.46743946 -13.43549903  4.48660968 
      320   3   -5.96450957 -11.93859914  5.96450957 
      321   2   -7.44416946 -10.42799925  7.44416946 
      322   3   -5.95977957 -8.94979935  8.94979935 
      323   2   -7.44416946 -7.44416946  10.42799925 
      324   3   -5.96450957 -5.96450957  11.93859914 
      325   2   -7.46743946 -4.48660968  13.43549903 
      326   3   -5.95632957 -2.97687978  14.91009892 
      327   2   -7.42313946 -1.46020990  16.40099882 
      328   1   -5.93408957  0.01017280  17.82879872 
      329   2   -7.41492946  1.50779989  19.22769861 
      330   1   -5.92260957  2.96811979  20.67019851 
      331   2   -7.39087946  4.44347968  22.10429840 
      332   2   -4.43837968 -22.11209840 -1.48856989 
      333   1   -2.96044978 -20.68949851 -0.00348795 
      334   2   -4.44210968 -19.25419861  1.47005990 
      335   1   -2.96321978 -17.83829871  2.96321978 
      336   2   -4.44411968 -16.40999881  4.44411968 
      337   3   -2.97687978 -14.91009892  5.95632957 
      338   2   -4.48660968 -13.43549903  7.46743946 
      339   3   -2.99522978 -11.93309914  8.95265935 
      340   2   -4.49527967 -10.45679925  10.45679925 
      341   3   -2.99522978 -8.95265935  11.93309914 
      342   2   -4.48660968 -7.46743946  13.43549903 
      343   3   -2.97687978 -5.95632957  14.91009892 
      344   2   -4.44411968 -4.44411968  16.40999881 
      345   1   -2.96321978 -2.96321978  17.83829871 
      346   2   -4.44210968 -1.47005990  19.25419861 
      347   1   -2.96044978  0.00348795  20.68949851 
      348   2   -4.43837968  1.48856989  22.11209840 
      349   2   -1.47531990 -22.12019840  1.47531990 
      350   1    0.00348795 -20.68949851  2.96044978 
      351   2   -1.47005990 -19.25419861  4.44210968 
      352   1    0.01017280 -17.82879872  5.93408957 
      353   2   -1.46020990 -16.40099882  7.42313946 
      354   3    0.01043310 -14.89409893  8.93743936 
      355   2   -1.50126989 -13.42039903  10.44209925 
      356   3    0.00773854 -11.92379914  11.92379914 
      357   2   -1.50126989 -10.44209925  13.42039903 
      358   3    0.01043310 -8.93743936  14.89409893 
      359   2   -1.46020990 -7.42313946  16.40099882 
      360   1    0.01017280 -5.93408957  17.82879872 
      361   2   -1.47005990 -4.44210968  19.25419861 
      362   1    0.00348795 -2.96044978  20.68949851 
      363   2   -1.47531990 -1.47531990  22.12019840 
      364   2    1.48856989 -22.11209840  4.43837968 
      365   1    2.96811979 -20.67019851  5.92260957 
      366   2    1.50779989 -19.22769861  7.41492946 
      367   1    2.98953978 -17.78189872  8.90786936 
      368   2    1.55655989 -16.33559882  10.42539925 
      369   1    3.00896978 -14.84409893  11.88719914 
      370   2    1.56038989 -13.38809903  13.38809903 
      371   1    3.00896978 -11.88719914  14.84409893 
      372   2    1.55655989 -10.42539925  16.33559882 
      373   1    2.98953978 -8.90786936  17.78189872 
      374   2    1.50779989 -7.41492946  19.22769861 
      375   1    2.96811979 -5.92260957  20.67019851 
      376   2    1.48856989 -4.43837968  22.11209840 
      377   2    4.44347968 -22.10429840  7.39087946 
      378   1    5.91915957 -20.65379851  8.86960936 
      379   2    4.46556968 -19.20779861  10.36499925 
      380   1    5.93189957 -17.73429872  11.83489914 
      381   2    4.48098968 -16.27859883  13.33089904 
      382   1    5.93892957 -14.79279893  14.79279893 
      383   2    4.48098968 -13.33089904  16.27859883 
      384   1    5.93189957 -11.83489914  17.73429872 
      385   2    4.46556968 -10.36499925  19.20779861 
      386   1    5.91915957 -8.86960936  20.65379851 
      387   2    4.44347968 -7.39087946  22.10429840 
      388   2    7.39852947 -19.17649862  13.29029904 
      389   1    8.85945936 -17.70069872  14.75659893 
      390   2    7.40333947 -16.24109883  16.24109883 
      391   1    8.85945936 -14.75659893  17.70069872 
      392   2    7.39852947 -13.29029904  19.17649862 
      393   1   -20.65379851 -5.91915957 -8.86960936 
      394   2   -22.10429840 -4.44347968 -7.39087946 
      395   1   -20.67019851 -2.96811979 -5.92260957 
      396   2   -22.11209840 -1.48856989 -4.43837968 
      397   1   -20.68949851 -0.00348795 -2.96044978 
      398   2   -22.12019840  1.47531990 -1.47531990 
      399   1   -20.68949851  2.96044978  0.00348795 
      400   2   -22.11209840  4.43837968  1.48856989 
      401   1   -20.67019851  5.92260957  2.96811979 
      402   2   -22.10429840  7.39087946  4.44347968 
      403   1   -20.65379851  8.86960936  5.91915957 
      404   1   -17.70349872 -11.81159915 -11.81159915 
      405   2   -19.18159861 -10.34839925 -10.34839925 
      406   1   -17.74019872 -8.88697936 -8.88697936 
      407   2   -19.21499861 -7.41893947 -7.41893947 
      408   1   -17.78889872 -5.95181957 -5.95181957 
      409   2   -19.23579861 -4.46410968 -4.46410968 
      410   1   -17.83689871 -2.97357979 -2.97357979 
      411   2   -19.26309861 -1.48694989 -1.48694989 
      412   1   -17.84689871 -0.00000000 -0.00000000 
      413   2   -19.26309861  1.48694989  1.48694989 
      414   1   -17.83689871  2.97357979  2.97357979 
      415   2   -19.23579861  4.46410968  4.46410968 
      416   1   -17.78889872  5.95181957  5.95181957 
      417   2   -19.21499861  7.41893947  7.41893947 
      418   1   -17.74019872  8.88697936  8.88697936 
      419   2   -19.18159861  10.34839925  10.34839925 
      420   1   -17.70349872  11.81159915  11.81159915 
      421   1   -14.76719893 -14.76719893 -11.81639915 
      422   2   -16.25609882 -13.31069904 -10.35919925 
      423   1   -14.81339893 -11.86029914 -8.89883936 
      424   2   -16.29439882 -10.39069925 -7.43876946 
      425   1   -14.87079893 -8.93552935 -5.96353957 
      426   2   -16.35879882 -7.47556946 -4.51291968 
      427   3   -14.91049892 -5.96343957 -2.98983978 
      428   2   -16.41949881 -4.46465968 -1.50204989 
      429   3   -14.92489892 -2.97722978 -0.00299240 
      430   2   -16.42909881 -1.48179989  1.48179989 
      431   3   -14.92489892  0.00299240  2.97722978 
      432   2   -16.41949881  1.50204989  4.46465968 
      433   3   -14.91049892  2.98983978  5.96343957 
      434   2   -16.35879882  4.51291968  7.47556946 
      435   1   -14.87079893  5.96353957  8.93552935 
      436   2   -16.29439882  7.43876946  10.39069925 
      437   1   -14.81339893  8.89883936  11.86029914 
      438   2   -16.25609882  10.35919925  13.31069904 
      439   1   -14.76719893  11.81639915  14.76719893 
      440   1   -11.81159915 -17.70349872 -11.81159915 
      441   2   -13.31069904 -16.25609882 -10.35919925 
      442   1   -11.86029914 -14.81339893 -8.89883936 
      443   2   -13.35019903 -13.35019903 -7.44486946 
      444   1   -11.91349914 -11.91349914 -5.95994957 
      445   2   -13.41499903 -10.44769925 -4.52298967 
      446   3   -11.93369914 -8.95575935 -3.00320979 
      447   2   -13.40919903 -7.45179946 -1.50360989 
      448   3   -11.92709914 -5.96399957 -0.00091070 
      449   2   -13.42199903 -4.46769968  1.48447990 
      450   3   -11.93169914 -2.97888978  2.97888978 
      451   2   -13.42199903 -1.48447990  4.46769968 
      452   3   -11.92709914  0.00091070  5.96399957 
      453   2   -13.40919903  1.50360989  7.45179946 
      454   3   -11.93369914  3.00320979  8.95575935 
      455   2   -13.41499903  4.52298967  10.44769925 
      456   1   -11.91349914  5.95994957  11.91349914 
      457   2   -13.35019903  7.44486946  13.35019903 
      458   1   -11.86029914  8.89883936  14.81339893 
      459   2   -13.31069904  10.35919925  16.25609882 
      460   1   -11.81159915  11.81159915  17.70349872 
      461   2   -10.34839925 -19.18159861 -10.34839925 
      462   1   -8.88697936 -17.74019872 -8.88697936 
      463   2   -10.39069925 -16.29439882 -7.43876946 
      464   1   -8.93552935 -14.87079893 -5.96353957 
      465   2   -10.44769925 -13.41499903 -4.52298967 
      466   3   -8.95575935 -11.93369914 -3.00320979 
      467   2   -10.43629924 -10.43629924 -1.50316989 
      468   3   -8.94998935 -8.94998935  0.00007327 
      469   2   -10.44259925 -7.46050946  1.49558989 
      470   3   -8.95092935 -5.96484957  2.98251979 
      471   2   -10.44529925 -4.47275968  4.47275968 
      472   3   -8.95092935 -2.98251979  5.96484957 
      473   2   -10.44259925 -1.49558989  7.46050946 
      474   3   -8.94998935 -0.00007327  8.94998935 
      475   2   -10.43629924  1.50316989  10.43629924 
      476   3   -8.95575935  3.00320979  11.93369914 
      477   2   -10.44769925  4.52298967  13.41499903 
      478   1   -8.93552935  5.96353957  14.87079893 
      479   2   -10.39069925  7.43876946  16.29439882 
      480   1   -8.88697936  8.88697936  17.74019872 
      481   2   -10.34839925  10.34839925  19.18159861 
      482   1   -5.91915957 -20.65379851 -8.86960936 
      483   2   -7.41893947 -19.21499861 -7.41893947 
      484   1   -5.95181957 -17.78889872 -5.95181957 
      485   2   -7.47556946 -16.35879882 -4.51291968 
      486   3   -5.96343957 -14.91049892 -2.98983978 
      487   2   -7.45179946 -13.40919903 -1.50360989 
      488   3   -5.96399957 -11.92709914 -0.00091070 
      489   2   -7.46050946 -10.44259925  1.49558989 
      490   3   -5.96484957 -8.95092935  2.98251979 
      491   2   -7.45771946 -7.45771946  4.47102968 
      492   3   -5.96580957 -5.96580957  5.96580957 
      493   2   -7.45771946 -4.47102968  7.45771946 
      494   3   -5.96484957 -2.98251979  8.95092935 
      495   2   -7.46050946 -1.49558989  10.44259925 
      496   3   -5.96399957  0.00091070  11.92709914 
      497   2   -7.45179946  1.50360989  13.40919903 
      498   3   -5.96343957  2.98983978  14.91049892 
      499   2   -7.47556946  4.51291968  16.35879882 
      500   1   -5.95181957  5.95181957  17.78889872 
      501   2   -7.41893947  7.41893947  19.21499861 
      502   1   -5.91915957  8.86960936  20.65379851 
      503   2   -4.44347968 -22.10429840 -7.39087946 
      504   1   -2.96811979 -20.67019851 -5.92260957 
      505   2   -4.46410968 -19.23579861 -4.46410968 
      506   1   -2.97357979 -17.83689871 -2.97357979 
      507   2   -4.46465968 -16.41949881 -1.50204989 
      508   3   -2.97722978 -14.92489892 -0.00299240 
      509   2   -4.46769968 -13.42199903  1.48447990 
      510   3   -2.97888978 -11.93169914  2.97888978 
      511   2   -4.47275968 -10.44529925  4.47275968 
      512   3   -2.98251979 -8.95092935  5.96484957 
      513   2   -4.47102968 -7.45771946  7.45771946 
      514   3   -2.98251979 -5.96484957  8.95092935 
      515   2   -4.47275968 -4.47275968  10.44529925 
      516   3   -2.97888978 -2.97888978  11.93169914 
      517   2   -4.46769968 -1.48447990  13.42199903 
      518   3   -2.97722978  0.00299240  14.92489892 
      519   2   -4.46465968  1.50204989  16.41949881 
      520   1   -2.97357979  2.97357979  17.83689871 
      521   2   -4.46410968  4.46410968  19.23579861 
      522   1   -2.96811979  5.92260957  20.67019851 
      523   2   -4.44347968  7.39087946  22.10429840 
      524   2   -1.48856989 -22.11209840 -4.43837968 
      525   1   -0.00348795 -20.68949851 -2.96044978 
      526   2   -1.48694989 -19.26309861 -1.48694989 
      527   1   -0.00000000 -17.84689871 -0.00000000 
      528   2   -1.48179989 -16.42909881  1.48179989 
      529   3    0.00299240 -14.92489892  2.97722978 
      530   2   -1.48447990 -13.42199903  4.46769968 
      531   3    0.00091070 -11.92709914  5.96399957 
      532   2   -1.49558989 -10.44259925  7.46050946 
      533   3   -0.00007327 -8.94998935  8.94998935 
      534   2   -1.49558989 -7.46050946  10.44259925 
      535   3    0.00091070 -5.96399957  11.92709914 
      536   2   -1.48447990 -4.46769968  13.42199903 
      537   3    0.00299240 -2.97722978  14.92489892 
      538   2   -1.48179989 -1.48179989  16.42909881 
      539   1   -0.00000000 -0.00000000  17.84689871 
      540   2   -1.48694989  1.48694989  19.26309861 
      541   1   -0.00348795  2.96044978  20.68949851 
      542   2   -1.48856989  4.43837968  22.11209840 
      543   2    1.47531990 -22.12019840 -1.47531990 
      544   1    2.96044978 -20.68949851  0.00348795 
      545   2    1.48694989 -19.26309861  1.48694989 