LAMMPS configuration data file

  5395 atoms

  3 atom types

  -50.544340  50.544340  xlo xhi
  -50.544340  50.544340  ylo yhi
  -50.544340  50.544340  zlo zhi

 Masses

  1   32.065
  2   112.411
  3   78.960

 Atoms

        1   1   -23.27187800 -14.54492375  14.54492375 
        2   1   -20.36289325 -17.45390850  14.54492375 
        3   2   -21.81738563 -15.99941613  15.99941612 
        4   1   -20.36289325 -14.54492375  17.45390850 
        5   1   -17.45390850 -20.36289325  14.54492375 
        6   2   -18.90840088 -18.90840088  15.99941612 
        7   1   -17.45390850 -17.45390850  17.45390850 
        8   2   -18.90840088 -15.99941613  18.90840087 
        9   1   -17.45390850 -14.54492375  20.36289325 
       10   1   -14.54492375 -23.27187800  14.54492375 
       11   2   -15.99941613 -21.81738563  15.99941612 
       12   1   -14.54492375 -20.36289325  17.45390850 
       13   2   -15.99941613 -18.90840088  18.90840087 
       14   1   -14.54492375 -17.45390850  20.36289325 
       15   2   -15.99941613 -15.99941613  21.81738562 
       16   1   -14.54492375 -14.54492375  23.27187800 
       17   1   -29.08984750 -8.72695425  8.72695425 
       18   1   -26.18086275 -17.45390850  2.90898475 
       19   1   -26.18086275 -14.54492375  5.81796950 
       20   2   -27.63535513 -13.09043138  7.27246187 
       21   1   -26.18086275 -11.63593900  8.72695425 
       22   2   -27.63535513 -10.18144663  10.18144662 
       23   1   -26.18086275 -8.72695425  11.63593900 
       24   2   -27.63535513 -7.27246188  13.09043137 
       25   1   -26.18086275 -5.81796950  14.54492375 
       26   1   -26.18086275 -2.90898475  17.45390850 
       27   1   -23.27187800 -20.36289325  2.90898475 
       28   2   -24.72637038 -18.90840088  4.36347712 
       29   1   -23.27187800 -17.45390850  5.81796950 
       30   2   -24.72637038 -15.99941613  7.27246187 
       31   1   -23.27187800 -14.54492375  8.72695425 
       32   2   -24.72637038 -13.09043138  10.18144662 
       33   1   -23.27187800 -11.63593900  11.63593900 
       34   2   -24.72637038 -10.18144663  13.09043137 
       35   1   -23.27187800 -8.72695425  14.54492375 
       36   2   -24.72637038 -7.27246188  15.99941612 
       37   1   -23.27187800 -5.81796950  17.45390850 
       38   2   -24.72637038 -4.36347713  18.90840087 
       39   1   -23.27187800 -2.90898475  20.36289325 
       40   1   -20.36289325 -23.27187800  2.90898475 
       41   2   -21.81738563 -21.81738563  4.36347712 
       42   1   -20.36289325 -20.36289325  5.81796950 
       43   2   -21.81738563 -18.90840088  7.27246187 
       44   1   -20.36289325 -17.45390850  8.72695425 
       45   2   -21.81738563 -15.99941613  10.18144662 
       46   1   -20.36289325 -14.54492375  11.63593900 
       47   2   -21.81738563 -13.09043138  13.09043137 
       48   1   -20.36289325 -11.63593900  14.54492375 
       49   2   -21.81738563 -10.18144663  15.99941612 
       50   1   -20.36289325 -8.72695425  17.45390850 
       51   2   -21.81738563 -7.27246188  18.90840087 
       52   1   -20.36289325 -5.81796950  20.36289325 
       53   2   -21.81738563 -4.36347713  21.81738562 
       54   1   -20.36289325 -2.90898475  23.27187800 
       55   1   -17.45390850 -26.18086275  2.90898475 
       56   2   -18.90840088 -24.72637038  4.36347712 
       57   1   -17.45390850 -23.27187800  5.81796950 
       58   2   -18.90840088 -21.81738563  7.27246187 
       59   1   -17.45390850 -20.36289325  8.72695425 
       60   2   -18.90840088 -18.90840088  10.18144662 
       61   1   -17.45390850 -17.45390850  11.63593900 
       62   2   -18.90840088 -15.99941613  13.09043137 
       63   1   -17.45390850 -14.54492375  14.54492375 
       64   2   -18.90840088 -13.09043138  15.99941612 
       65   1   -17.45390850 -11.63593900  17.45390850 
       66   2   -18.90840088 -10.18144663  18.90840087 
       67   1   -17.45390850 -8.72695425  20.36289325 
       68   2   -18.90840088 -7.27246188  21.81738562 
       69   1   -17.45390850 -5.81796950  23.27187800 
       70   2   -18.90840088 -4.36347713  24.72637037 
       71   1   -17.45390850 -2.90898475  26.18086275 
       72   1   -14.54492375 -26.18086275  5.81796950 
       73   2   -15.99941613 -24.72637038  7.27246187 
       74   1   -14.54492375 -23.27187800  8.72695425 
       75   2   -15.99941613 -21.81738563  10.18144662 
       76   1   -14.54492375 -20.36289325  11.63593900 
       77   2   -15.99941613 -18.90840088  13.09043137 
       78   1   -14.54492375 -17.45390850  14.54492375 
       79   2   -15.99941613 -15.99941613  15.99941612 
       80   1   -14.54492375 -14.54492375  17.45390850 
       81   2   -15.99941613 -13.09043138  18.90840087 
       82   1   -14.54492375 -11.63593900  20.36289325 
       83   2   -15.99941613 -10.18144663  21.81738562 
       84   1   -14.54492375 -8.72695425  23.27187800 
       85   2   -15.99941613 -7.27246188  24.72637037 
       86   1   -14.54492375 -5.81796950  26.18086275 
       87   2   -13.09043138 -27.63535513  7.27246187 
       88   1   -11.63593900 -26.18086275  8.72695425 
       89   2   -13.09043138 -24.72637038  10.18144662 
       90   1   -11.63593900 -23.27187800  11.63593900 
       91   2   -13.09043138 -21.81738563  13.09043137 
       92   1   -11.63593900 -20.36289325  14.54492375 
       93   2   -13.09043138 -18.90840088  15.99941612 
       94   1   -11.63593900 -17.45390850  17.45390850 
       95   2   -13.09043138 -15.99941613  18.90840087 
       96   1   -11.63593900 -14.54492375  20.36289325 
       97   2   -13.09043138 -13.09043138  21.81738562 
       98   1   -11.63593900 -11.63593900  23.27187800 
       99   2   -13.09043138 -10.18144663  24.72637037 
      100   1   -11.63593900 -8.72695425  26.18086275 
      101   2   -13.09043138 -7.27246188  27.63535512 
      102   1   -8.72695425 -29.08984750  8.72695425 
      103   2   -10.18144663 -27.63535513  10.18144662 
      104   1   -8.72695425 -26.18086275  11.63593900 
      105   2   -10.18144663 -24.72637038  13.09043137 
      106   1   -8.72695425 -23.27187800  14.54492375 
      107   2   -10.18144663 -21.81738563  15.99941612 
      108   1   -8.72695425 -20.36289325  17.45390850 
      109   2   -10.18144663 -18.90840088  18.90840087 
      110   1   -8.72695425 -17.45390850  20.36289325 
      111   2   -10.18144663 -15.99941613  21.81738562 
      112   1   -8.72695425 -14.54492375  23.27187800 
      113   2   -10.18144663 -13.09043138  24.72637037 
      114   1   -8.72695425 -11.63593900  26.18086275 
      115   2   -10.18144663 -10.18144663  27.63535512 
      116   1   -8.72695425 -8.72695425  29.08984750 
      117   2   -7.27246188 -27.63535513  13.09043137 
      118   1   -5.81796950 -26.18086275  14.54492375 
      119   2   -7.27246188 -24.72637038  15.99941612 
      120   1   -5.81796950 -23.27187800  17.45390850 
      121   2   -7.27246188 -21.81738563  18.90840087 
      122   1   -5.81796950 -20.36289325  20.36289325 
      123   2   -7.27246188 -18.90840088  21.81738562 
      124   1   -5.81796950 -17.45390850  23.27187800 
      125   2   -7.27246188 -15.99941613  24.72637037 
      126   1   -5.81796950 -14.54492375  26.18086275 
      127   2   -7.27246188 -13.09043138  27.63535512 
      128   1   -2.90898475 -26.18086275  17.45390850 
      129   2   -4.36347713 -24.72637038  18.90840087 
      130   1   -2.90898475 -23.27187800  20.36289325 
      131   2   -4.36347713 -21.81738563  21.81738562 
      132   1   -2.90898475 -20.36289325  23.27187800 
      133   2   -4.36347713 -18.90840088  24.72637037 
      134   1   -2.90898475 -17.45390850  26.18086275 
      135   1   -29.08984750 -11.63593900 -0.00000000 
      136   1   -29.08984750 -8.72695425  2.90898475 
      137   1   -29.08984750 -5.81796950  5.81796950 
      138   1   -29.08984750 -2.90898475  8.72695425 
      139   1   -29.08984750 -0.00000000  11.63593900 
      140   1   -26.18086275 -17.45390850 -2.90898475 
      141   1   -26.18086275 -14.54492375 -0.00000000 
      142   2   -27.63535513 -13.09043138  1.45449237 
      143   1   -26.18086275 -11.63593900  2.90898475 
      144   2   -27.63535513 -10.18144663  4.36347712 
      145   1   -26.18086275 -8.72695425  5.81796950 
      146   2   -27.63535513 -7.27246188  7.27246187 
      147   1   -26.18086275 -5.81796950  8.72695425 
      148   2   -27.63535513 -4.36347713  10.18144662 
      149   1   -26.18086275 -2.90898475  11.63593900 
      150   2   -27.63535513 -1.45449238  13.09043137 
      151   1   -26.18086275 -0.00000000  14.54492375 
      152   1   -26.18086275  2.90898475  17.45390850 
      153   1   -23.27187800 -20.36289325 -2.90898475 
      154   2   -24.72637038 -18.90840088 -1.45449238 
      155   1   -23.27187800 -17.45390850 -0.00000000 
      156   2   -24.72637038 -15.99941613  1.45449237 
      157   1   -23.27187800 -14.54492375  2.90898475 
      158   2   -24.72637038 -13.09043138  4.36347712 
      159   1   -23.27187800 -11.63593900  5.81796950 
      160   2   -24.72637038 -10.18144663  7.27246187 
      161   1   -23.27187800 -8.72695425  8.72695425 
      162   2   -24.72637038 -7.27246188  10.18144662 
      163   1   -23.27187800 -5.81796950  11.63593900 
      164   2   -24.72637038 -4.36347713  13.09043137 
      165   1   -23.27187800 -2.90898475  14.54492375 
      166   2   -24.72637038 -1.45449238  15.99941612 
      167   1   -23.27187800 -0.00000000  17.45390850 
      168   2   -24.72637038  1.45449237  18.90840087 
      169   1   -23.27187800  2.90898475  20.36289325 
      170   1   -20.36289325 -23.27187800 -2.90898475 
      171   2   -21.81738563 -21.81738563 -1.45449238 
      172   1   -20.36289325 -20.36289325 -0.00000000 
      173   2   -21.81738563 -18.90840088  1.45449237 
      174   1   -20.36289325 -17.45390850  2.90898475 
      175   2   -21.81738563 -15.99941613  4.36347712 
      176   1   -20.36289325 -14.54492375  5.81796950 
      177   2   -21.81738563 -13.09043138  7.27246187 
      178   1   -20.36289325 -11.63593900  8.72695425 
      179   2   -21.81738563 -10.18144663  10.18144662 
      180   1   -20.36289325 -8.72695425  11.63593900 
      181   2   -21.81738563 -7.27246188  13.09043137 
      182   1   -20.36289325 -5.81796950  14.54492375 
      183   2   -21.81738563 -4.36347713  15.99941612 
      184   1   -20.36289325 -2.90898475  17.45390850 
      185   2   -21.81738563 -1.45449238  18.90840087 
      186   1   -20.36289325 -0.00000000  20.36289325 
      187   2   -21.81738563  1.45449237  21.81738562 
      188   1   -20.36289325  2.90898475  23.27187800 
      189   1   -17.45390850 -26.18086275 -2.90898475 
      190   2   -18.90840088 -24.72637038 -1.45449238 
      191   1   -17.45390850 -23.27187800 -0.00000000 
      192   2   -18.90840088 -21.81738563  1.45449237 
      193   1   -17.45390850 -20.36289325  2.90898475 
      194   2   -18.90840088 -18.90840088  4.36347712 
      195   1   -17.45390850 -17.45390850  5.81796950 
      196   2   -18.90840088 -15.99941613  7.27246187 
      197   1   -17.45390850 -14.54492375  8.72695425 
      198   2   -18.90840088 -13.09043138  10.18144662 
      199   1   -17.45390850 -11.63593900  11.63593900 
      200   2   -18.90840088 -10.18144663  13.09043137 
      201   1   -17.45390850 -8.72695425  14.54492375 
      202   2   -18.90840088 -7.27246188  15.99941612 
      203   1   -17.45390850 -5.81796950  17.45390850 
      204   2   -18.90840088 -4.36347713  18.90840087 
      205   1   -17.45390850 -2.90898475  20.36289325 
      206   2   -18.90840088 -1.45449238  21.81738562 
      207   1   -17.45390850 -0.00000000  23.27187800 
      208   2   -18.90840088  1.45449237  24.72637037 
      209   1   -17.45390850  2.90898475  26.18086275 
      210   1   -14.54492375 -26.18086275 -0.00000000 
      211   2   -15.99941613 -24.72637038  1.45449237 
      212   1   -14.54492375 -23.27187800  2.90898475 
      213   2   -15.99941613 -21.81738563  4.36347712 
      214   1   -14.54492375 -20.36289325  5.81796950 
      215   2   -15.99941613 -18.90840088  7.27246187 
      216   1   -14.54492375 -17.45390850  8.72695425 
      217   2   -15.99941613 -15.99941613  10.18144662 
      218   1   -14.54492375 -14.54492375  11.63593900 
      219   2   -15.99941613 -13.09043138  13.09043137 
      220   1   -14.54492375 -11.63593900  14.54492375 
      221   2   -15.99941613 -10.18144663  15.99941612 
      222   1   -14.54492375 -8.72695425  17.45390850 
      223   2   -15.99941613 -7.27246188  18.90840087 
      224   1   -14.54492375 -5.81796950  20.36289325 
      225   2   -15.99941613 -4.36347713  21.81738562 
      226   1   -14.54492375 -2.90898475  23.27187800 
      227   2   -15.99941613 -1.45449238  24.72637037 
      228   1   -14.54492375 -0.00000000  26.18086275 
      229   1   -11.63593900 -29.08984750 -0.00000000 
      230   2   -13.09043138 -27.63535513  1.45449237 
      231   1   -11.63593900 -26.18086275  2.90898475 
      232   2   -13.09043138 -24.72637038  4.36347712 
      233   1   -11.63593900 -23.27187800  5.81796950 
      234   2   -13.09043138 -21.81738563  7.27246187 
      235   1   -11.63593900 -20.36289325  8.72695425 
      236   2   -13.09043138 -18.90840088  10.18144662 
      237   1   -11.63593900 -17.45390850  11.63593900 
      238   2   -13.09043138 -15.99941613  13.09043137 
      239   1   -11.63593900 -14.54492375  14.54492375 
      240   2   -13.09043138 -13.09043138  15.99941612 
      241   1   -11.63593900 -11.63593900  17.45390850 
      242   2   -13.09043138 -10.18144663  18.90840087 
      243   1   -11.63593900 -8.72695425  20.36289325 
      244   2   -13.09043138 -7.27246188  21.81738562 
      245   1   -11.63593900 -5.81796950  23.27187800 
      246   2   -13.09043138 -4.36347713  24.72637037 
      247   1   -11.63593900 -2.90898475  26.18086275 
      248   2   -13.09043138 -1.45449238  27.63535512 
      249   1   -11.63593900 -0.00000000  29.08984750 
      250   1   -8.72695425 -29.08984750  2.90898475 
      251   2   -10.18144663 -27.63535513  4.36347712 
      252   1   -8.72695425 -26.18086275  5.81796950 
      253   2   -10.18144663 -24.72637038  7.27246187 
      254   1   -8.72695425 -23.27187800  8.72695425 
      255   2   -10.18144663 -21.81738563  10.18144662 
      256   1   -8.72695425 -20.36289325  11.63593900 
      257   2   -10.18144663 -18.90840088  13.09043137 
      258   1   -8.72695425 -17.45390850  14.54492375 
      259   2   -10.18144663 -15.99941613  15.99941612 
      260   1   -8.72695425 -14.54492375  17.45390850 
      261   2   -10.18144663 -13.09043138  18.90840087 
      262   1   -8.72695425 -11.63593900  20.36289325 
      263   2   -10.18144663 -10.18144663  21.81738562 
      264   1   -8.72695425 -8.72695425  23.27187800 
      265   2   -10.18144663 -7.27246188  24.72637037 
      266   1   -8.72695425 -5.81796950  26.18086275 
      267   2   -10.18144663 -4.36347713  27.63535512 
      268   1   -8.72695425 -2.90898475  29.08984750 
      269   1   -5.81796950 -29.08984750  5.81796950 
      270   2   -7.27246188 -27.63535513  7.27246187 
      271   1   -5.81796950 -26.18086275  8.72695425 
      272   2   -7.27246188 -24.72637038  10.18144662 
      273   1   -5.81796950 -23.27187800  11.63593900 
      274   2   -7.27246188 -21.81738563  13.09043137 
      275   1   -5.81796950 -20.36289325  14.54492375 
      276   2   -7.27246188 -18.90840088  15.99941612 
      277   1   -5.81796950 -17.45390850  17.45390850 
      278   2   -7.27246188 -15.99941613  18.90840087 
      279   1   -5.81796950 -14.54492375  20.36289325 
      280   2   -7.27246188 -13.09043138  21.81738562 
      281   1   -5.81796950 -11.63593900  23.27187800 
      282   2   -7.27246188 -10.18144663  24.72637037 
      283   1   -5.81796950 -8.72695425  26.18086275 
      284   2   -7.27246188 -7.27246188  27.63535512 
      285   1   -5.81796950 -5.81796950  29.08984750 
      286   1   -2.90898475 -29.08984750  8.72695425 
      287   2   -4.36347713 -27.63535513  10.18144662 
      288   1   -2.90898475 -26.18086275  11.63593900 
      289   2   -4.36347713 -24.72637038  13.09043137 
      290   1   -2.90898475 -23.27187800  14.54492375 
      291   2   -4.36347713 -21.81738563  15.99941612 
      292   1   -2.90898475 -20.36289325  17.45390850 
      293   2   -4.36347713 -18.90840088  18.90840087 
      294   1   -2.90898475 -17.45390850  20.36289325 
      295   2   -4.36347713 -15.99941613  21.81738562 
      296   1   -2.90898475 -14.54492375  23.27187800 
      297   2   -4.36347713 -13.09043138  24.72637037 
      298   1   -2.90898475 -11.63593900  26.18086275 
      299   2   -4.36347713 -10.18144663  27.63535512 
      300   1   -2.90898475 -8.72695425  29.08984750 
      301   1   -0.00000000 -29.08984750  11.63593900 
      302   2   -1.45449238 -27.63535513  13.09043137 
      303   1   -0.00000000 -26.18086275  14.54492375 
      304   2   -1.45449238 -24.72637038  15.99941612 
      305   1   -0.00000000 -23.27187800  17.45390850 
      306   2   -1.45449238 -21.81738563  18.90840087 
      307   1   -0.00000000 -20.36289325  20.36289325 
      308   2   -1.45449238 -18.90840088  21.81738562 
      309   1   -0.00000000 -17.45390850  23.27187800 
      310   2   -1.45449238 -15.99941613  24.72637037 
      311   1   -0.00000000 -14.54492375  26.18086275 
      312   2   -1.45449238 -13.09043138  27.63535512 
      313   1   -0.00000000 -11.63593900  29.08984750 
      314   1    2.90898475 -26.18086275  17.45390850 
      315   2    1.45449237 -24.72637038  18.90840087 
      316   1    2.90898475 -23.27187800  20.36289325 
      317   2    1.45449237 -21.81738563  21.81738562 
      318   1    2.90898475 -20.36289325  23.27187800 
      319   2    1.45449237 -18.90840088  24.72637037 
      320   1    2.90898475 -17.45390850  26.18086275 
      321   1   -29.08984750 -8.72695425 -2.90898475 
      322   2   -30.54433988 -7.27246188 -1.45449238 
      323   1   -29.08984750 -5.81796950 -0.00000000 
      324   2   -30.54433988 -4.36347713  1.45449237 
      325   1   -29.08984750 -2.90898475  2.90898475 
      326   2   -30.54433988 -1.45449238  4.36347712 
      327   1   -29.08984750 -0.00000000  5.81796950 
      328   2   -30.54433988  1.45449237  7.27246187 
      329   1   -29.08984750  2.90898475  8.72695425 
      330   1   -26.18086275 -14.54492375 -5.81796950 
      331   2   -27.63535513 -13.09043138 -4.36347713 
      332   1   -26.18086275 -11.63593900 -2.90898475 
      333   2   -27.63535513 -10.18144663 -1.45449238 
      334   1   -26.18086275 -8.72695425 -0.00000000 
      335   2   -27.63535513 -7.27246188  1.45449237 
      336   1   -26.18086275 -5.81796950  2.90898475 
      337   2   -27.63535513 -4.36347713  4.36347712 
      338   1   -26.18086275 -2.90898475  5.81796950 
      339   2   -27.63535513 -1.45449238  7.27246187 
      340   1   -26.18086275 -0.00000000  8.72695425 
      341   2   -27.63535513  1.45449237  10.18144662 
      342   1   -26.18086275  2.90898475  11.63593900 
      343   2   -27.63535513  4.36347712  13.09043137 
      344   1   -26.18086275  5.81796950  14.54492375 
      345   1   -23.27187800 -17.45390850 -5.81796950 
      346   2   -24.72637038 -15.99941613 -4.36347713 
      347   1   -23.27187800 -14.54492375 -2.90898475 
      348   2   -24.72637038 -13.09043138 -1.45449238 
      349   1   -23.27187800 -11.63593900 -0.00000000 
      350   2   -24.72637038 -10.18144663  1.45449237 
      351   1   -23.27187800 -8.72695425  2.90898475 
      352   2   -24.72637038 -7.27246188  4.36347712 
      353   1   -23.27187800 -5.81796950  5.81796950 
      354   2   -24.72637038 -4.36347713  7.27246187 
      355   1   -23.27187800 -2.90898475  8.72695425 
      356   2   -24.72637038 -1.45449238  10.18144662 
      357   1   -23.27187800 -0.00000000  11.63593900 
      358   2   -24.72637038  1.45449237  13.09043137 
      359   1   -23.27187800  2.90898475  14.54492375 
      360   2   -24.72637038  4.36347712  15.99941612 
      361   1   -23.27187800  5.81796950  17.45390850 
      362   1   -20.36289325 -20.36289325 -5.81796950 
      363   2   -21.81738563 -18.90840088 -4.36347713 
      364   1   -20.36289325 -17.45390850 -2.90898475 
      365   2   -21.81738563 -15.99941613 -1.45449238 
      366   1   -20.36289325 -14.54492375 -0.00000000 
      367   2   -21.81738563 -13.09043138  1.45449237 
      368   1   -20.36289325 -11.63593900  2.90898475 
      369   2   -21.81738563 -10.18144663  4.36347712 
      370   1   -20.36289325 -8.72695425  5.81796950 
      371   2   -21.81738563 -7.27246188  7.27246187 
      372   1   -20.36289325 -5.81796950  8.72695425 
      373   2   -21.81738563 -4.36347713  10.18144662 
      374   1   -20.36289325 -2.90898475  11.63593900 
      375   2   -21.81738563 -1.45449238  13.09043137 
      376   1   -20.36289325 -0.00000000  14.54492375 
      377   2   -21.81738563  1.45449237  15.99941612 
      378   1   -20.36289325  2.90898475  17.45390850 
      379   2   -21.81738563  4.36347712  18.90840087 
      380   1   -20.36289325  5.81796950  20.36289325 
      381   1   -17.45390850 -23.27187800 -5.81796950 
      382   2   -18.90840088 -21.81738563 -4.36347713 
      383   1   -17.45390850 -20.36289325 -2.90898475 
      384   2   -18.90840088 -18.90840088 -1.45449238 
      385   1   -17.45390850 -17.45390850 -0.00000000 
      386   2   -18.90840088 -15.99941613  1.45449237 
      387   1   -17.45390850 -14.54492375  2.90898475 
      388   2   -18.90840088 -13.09043138  4.36347712 
      389   1   -17.45390850 -11.63593900  5.81796950 
      390   2   -18.90840088 -10.18144663  7.27246187 
      391   1   -17.45390850 -8.72695425  8.72695425 
      392   2   -18.90840088 -7.27246188  10.18144662 
      393   1   -17.45390850 -5.81796950  11.63593900 
      394   2   -18.90840088 -4.36347713  13.09043137 
      395   1   -17.45390850 -2.90898475  14.54492375 
      396   2   -18.90840088 -1.45449238  15.99941612 
      397   1   -17.45390850 -0.00000000  17.45390850 
      398   2   -18.90840088  1.45449237  18.90840087 
      399   1   -17.45390850  2.90898475  20.36289325 
      400   2   -18.90840088  4.36347712  21.81738562 
      401   1   -17.45390850  5.81796950  23.27187800 
      402   1   -14.54492375 -26.18086275 -5.81796950 
      403   2   -15.99941613 -24.72637038 -4.36347713 
      404   1   -14.54492375 -23.27187800 -2.90898475 
      405   2   -15.99941613 -21.81738563 -1.45449238 
      406   1   -14.54492375 -20.36289325 -0.00000000 
      407   2   -15.99941613 -18.90840088  1.45449237 
      408   1   -14.54492375 -17.45390850  2.90898475 
      409   2   -15.99941613 -15.99941613  4.36347712 
      410   1   -14.54492375 -14.54492375  5.81796950 
      411   2   -15.99941613 -13.09043138  7.27246187 
      412   1   -14.54492375 -11.63593900  8.72695425 
      413   2   -15.99941613 -10.18144663  10.18144662 
      414   1   -14.54492375 -8.72695425  11.63593900 
      415   2   -15.99941613 -7.27246188  13.09043137 
      416   1   -14.54492375 -5.81796950  14.54492375 
      417   2   -15.99941613 -4.36347713  15.99941612 
      418   1   -14.54492375 -2.90898475  17.45390850 
      419   2   -15.99941613 -1.45449238  18.90840087 
      420   1   -14.54492375 -0.00000000  20.36289325 
      421   2   -15.99941613  1.45449237  21.81738562 
      422   1   -14.54492375  2.90898475  23.27187800 
      423   2   -15.99941613  4.36347712  24.72637037 
      424   1   -14.54492375  5.81796950  26.18086275 
      425   2   -13.09043138 -27.63535513 -4.36347713 
      426   1   -11.63593900 -26.18086275 -2.90898475 
      427   2   -13.09043138 -24.72637038 -1.45449238 
      428   1   -11.63593900 -23.27187800 -0.00000000 
      429   2   -13.09043138 -21.81738563  1.45449237 
      430   1   -11.63593900 -20.36289325  2.90898475 
      431   2   -13.09043138 -18.90840088  4.36347712 
      432   1   -11.63593900 -17.45390850  5.81796950 
      433   2   -13.09043138 -15.99941613  7.27246187 
      434   1   -11.63593900 -14.54492375  8.72695425 
      435   2   -13.09043138 -13.09043138  10.18144662 
      436   1   -11.63593900 -11.63593900  11.63593900 
      437   2   -13.09043138 -10.18144663  13.09043137 
      438   1   -11.63593900 -8.72695425  14.54492375 
      439   2   -13.09043138 -7.27246188  15.99941612 
      440   1   -11.63593900 -5.81796950  17.45390850 
      441   2   -13.09043138 -4.36347713  18.90840087 
      442   1   -11.63593900 -2.90898475  20.36289325 
      443   2   -13.09043138 -1.45449238  21.81738562 
      444   1   -11.63593900 -0.00000000  23.27187800 
      445   2   -13.09043138  1.45449237  24.72637037 
      446   1   -11.63593900  2.90898475  26.18086275 
      447   2   -13.09043138  4.36347712  27.63535512 
      448   1   -8.72695425 -29.08984750 -2.90898475 
      449   2   -10.18144663 -27.63535513 -1.45449238 
      450   1   -8.72695425 -26.18086275 -0.00000000 
      451   2   -10.18144663 -24.72637038  1.45449237 
      452   1   -8.72695425 -23.27187800  2.90898475 
      453   2   -10.18144663 -21.81738563  4.36347712 
      454   1   -8.72695425 -20.36289325  5.81796950 
      455   2   -10.18144663 -18.90840088  7.27246187 
      456   1   -8.72695425 -17.45390850  8.72695425 
      457   2   -10.18144663 -15.99941613  10.18144662 
      458   1   -8.72695425 -14.54492375  11.63593900 
      459   2   -10.18144663 -13.09043138  13.09043137 
      460   1   -8.72695425 -11.63593900  14.54492375 
      461   2   -10.18144663 -10.18144663  15.99941612 
      462   1   -8.72695425 -8.72695425  17.45390850 
      463   2   -10.18144663 -7.27246188  18.90840087 
      464   1   -8.72695425 -5.81796950  20.36289325 
      465   2   -10.18144663 -4.36347713  21.81738562 
      466   1   -8.72695425 -2.90898475  23.27187800 
      467   2   -10.18144663 -1.45449238  24.72637037 
      468   1   -8.72695425 -0.00000000  26.18086275 
      469   2   -10.18144663  1.45449237  27.63535512 
      470   1   -8.72695425  2.90898475  29.08984750 
      471   2   -7.27246188 -30.54433988 -1.45449238 
      472   1   -5.81796950 -29.08984750 -0.00000000 
      473   2   -7.27246188 -27.63535513  1.45449237 
      474   1   -5.81796950 -26.18086275  2.90898475 
      475   2   -7.27246188 -24.72637038  4.36347712 
      476   1   -5.81796950 -23.27187800  5.81796950 
      477   2   -7.27246188 -21.81738563  7.27246187 
      478   1   -5.81796950 -20.36289325  8.72695425 
      479   2   -7.27246188 -18.90840088  10.18144662 
      480   1   -5.81796950 -17.45390850  11.63593900 
      481   2   -7.27246188 -15.99941613  13.09043137 
      482   1   -5.81796950 -14.54492375  14.54492375 
      483   2   -7.27246188 -13.09043138  15.99941612 
      484   1   -5.81796950 -11.63593900  17.45390850 
      485   2   -7.27246188 -10.18144663  18.90840087 
      486   1   -5.81796950 -8.72695425  20.36289325 
      487   2   -7.27246188 -7.27246188  21.81738562 
      488   1   -5.81796950 -5.81796950  23.27187800 
      489   2   -7.27246188 -4.36347713  24.72637037 
      490   1   -5.81796950 -2.90898475  26.18086275 
      491   2   -7.27246188 -1.45449238  27.63535512 
      492   1   -5.81796950 -0.00000000  29.08984750 
      493   2   -7.27246188  1.45449237  30.54433987 
      494   2   -4.36347713 -30.54433988  1.45449237 
      495   1   -2.90898475 -29.08984750  2.90898475 
      496   2   -4.36347713 -27.63535513  4.36347712 
      497   1   -2.90898475 -26.18086275  5.81796950 
      498   2   -4.36347713 -24.72637038  7.27246187 
      499   1   -2.90898475 -23.27187800  8.72695425 
      500   2   -4.36347713 -21.81738563  10.18144662 
      501   1   -2.90898475 -20.36289325  11.63593900 
      502   2   -4.36347713 -18.90840088  13.09043137 
      503   1   -2.90898475 -17.45390850  14.54492375 
      504   2   -4.36347713 -15.99941613  15.99941612 
      505   1   -2.90898475 -14.54492375  17.45390850 
      506   2   -4.36347713 -13.09043138  18.90840087 
      507   1   -2.90898475 -11.63593900  20.36289325 
      508   2   -4.36347713 -10.18144663  21.81738562 
      509   1   -2.90898475 -8.72695425  23.27187800 
      510   2   -4.36347713 -7.27246188  24.72637037 
      511   1   -2.90898475 -5.81796950  26.18086275 
      512   2   -4.36347713 -4.36347713  27.63535512 
      513   1   -2.90898475 -2.90898475  29.08984750 
      514   2   -4.36347713 -1.45449238  30.54433987 
      515   2   -1.45449238 -30.54433988  4.36347712 
      516   1   -0.00000000 -29.08984750  5.81796950 
      517   2   -1.45449238 -27.63535513  7.27246187 
      518   1   -0.00000000 -26.18086275  8.72695425 
      519   2   -1.45449238 -24.72637038  10.18144662 
      520   1   -0.00000000 -23.27187800  11.63593900 
      521   2   -1.45449238 -21.81738563  13.09043137 
      522   1   -0.00000000 -20.36289325  14.54492375 
      523   2   -1.45449238 -18.90840088  15.99941612 
      524   1   -0.00000000 -17.45390850  17.45390850 
      525   2   -1.45449238 -15.99941613  18.90840087 
      526   1   -0.00000000 -14.54492375  20.36289325 
      527   2   -1.45449238 -13.09043138  21.81738562 
      528   1   -0.00000000 -11.63593900  23.27187800 
      529   2   -1.45449238 -10.18144663  24.72637037 
      530   1   -0.00000000 -8.72695425  26.18086275 
      531   2   -1.45449238 -7.27246188  27.63535512 
      532   1   -0.00000000 -5.81796950  29.08984750 
      533   2   -1.45449238 -4.36347713  30.54433987 
      534   2    1.45449237 -30.54433988  7.27246187 
      535   1    2.90898475 -29.08984750  8.72695425 
      536   2    1.45449237 -27.63535513  10.18144662 
      537   1    2.90898475 -26.18086275  11.63593900 
      538   2    1.45449237 -24.72637038  13.09043137 
      539   1    2.90898475 -23.27187800  14.54492375 
      540   2    1.45449237 -21.81738563  15.99941612 
      541   1    2.90898475 -20.36289325  17.45390850 