LAMMPS configuration data file

  12865 atoms

  3 atom types

  -57.816802  57.816802  xlo xhi
  -57.816802  57.816802  ylo yhi
  -46.180863  46.180863  zlo zhi

 Masses

  1   32.065
  2   112.411
  3   78.960

 Atoms

        1   1   -36.36230938 -36.36230938  18.90840087 
        2   2   -37.81680175 -34.90781700  20.36289325 
        3   1   -36.36230938 -33.45332463  21.81738562 
        4   2   -37.81680175 -31.99883225  23.27187800 
        5   1   -36.36230938 -30.54433988  24.72637037 
        6   2   -34.90781700 -37.81680175  20.36289325 
        7   1   -33.45332463 -36.36230938  21.81738562 
        8   2   -34.90781700 -34.90781700  23.27187800 
        9   1   -33.45332463 -33.45332463  24.72637037 
       10   2   -34.90781700 -31.99883225  26.18086275 
       11   2   -31.99883225 -37.81680175  23.27187800 
       12   1   -30.54433988 -36.36230938  24.72637037 
       13   2   -31.99883225 -34.90781700  26.18086275 
       14   1   -36.36230938 -36.36230938  13.09043137 
       15   2   -37.81680175 -34.90781700  14.54492375 
       16   1   -36.36230938 -33.45332463  15.99941612 
       17   2   -37.81680175 -31.99883225  17.45390850 
       18   1   -36.36230938 -30.54433988  18.90840087 
       19   2   -37.81680175 -29.08984750  20.36289325 
       20   1   -36.36230938 -27.63535513  21.81738562 
       21   2   -37.81680175 -26.18086275  23.27187800 
       22   1   -36.36230938 -24.72637038  24.72637037 
       23   2   -34.90781700 -37.81680175  14.54492375 
       24   1   -33.45332463 -36.36230938  15.99941612 
       25   2   -34.90781700 -34.90781700  17.45390850 
       26   1   -33.45332463 -33.45332463  18.90840087 
       27   2   -34.90781700 -31.99883225  20.36289325 
       28   1   -33.45332463 -30.54433988  21.81738562 
       29   2   -34.90781700 -29.08984750  23.27187800 
       30   1   -33.45332463 -27.63535513  24.72637037 
       31   2   -34.90781700 -26.18086275  26.18086275 
       32   2   -31.99883225 -37.81680175  17.45390850 
       33   1   -30.54433988 -36.36230938  18.90840087 
       34   2   -31.99883225 -34.90781700  20.36289325 
       35   1   -30.54433988 -33.45332463  21.81738562 
       36   2   -31.99883225 -31.99883225  23.27187800 
       37   1   -30.54433988 -30.54433988  24.72637037 
       38   2   -31.99883225 -29.08984750  26.18086275 
       39   2   -29.08984750 -37.81680175  20.36289325 
       40   1   -27.63535513 -36.36230938  21.81738562 
       41   2   -29.08984750 -34.90781700  23.27187800 
       42   1   -27.63535513 -33.45332463  24.72637037 
       43   2   -29.08984750 -31.99883225  26.18086275 
       44   2   -26.18086275 -37.81680175  23.27187800 
       45   1   -24.72637038 -36.36230938  24.72637037 
       46   2   -26.18086275 -34.90781700  26.18086275 
       47   1   -36.36230938 -36.36230938  7.27246187 
       48   2   -37.81680175 -34.90781700  8.72695425 
       49   1   -36.36230938 -33.45332463  10.18144662 
       50   2   -37.81680175 -31.99883225  11.63593900 
       51   1   -36.36230938 -30.54433988  13.09043137 
       52   2   -37.81680175 -29.08984750  14.54492375 
       53   1   -36.36230938 -27.63535513  15.99941612 
       54   2   -37.81680175 -26.18086275  17.45390850 
       55   1   -36.36230938 -24.72637038  18.90840087 
       56   2   -37.81680175 -23.27187800  20.36289325 
       57   1   -36.36230938 -21.81738563  21.81738562 
       58   2   -37.81680175 -20.36289325  23.27187800 
       59   1   -36.36230938 -18.90840088  24.72637037 
       60   2   -34.90781700 -37.81680175  8.72695425 
       61   1   -33.45332463 -36.36230938  10.18144662 
       62   2   -34.90781700 -34.90781700  11.63593900 
       63   1   -33.45332463 -33.45332463  13.09043137 
       64   2   -34.90781700 -31.99883225  14.54492375 
       65   1   -33.45332463 -30.54433988  15.99941612 
       66   2   -34.90781700 -29.08984750  17.45390850 
       67   1   -33.45332463 -27.63535513  18.90840087 
       68   2   -34.90781700 -26.18086275  20.36289325 
       69   1   -33.45332463 -24.72637038  21.81738562 
       70   2   -34.90781700 -23.27187800  23.27187800 
       71   1   -33.45332463 -21.81738563  24.72637037 
       72   2   -34.90781700 -20.36289325  26.18086275 
       73   2   -31.99883225 -37.81680175  11.63593900 
       74   1   -30.54433988 -36.36230938  13.09043137 
       75   2   -31.99883225 -34.90781700  14.54492375 
       76   1   -30.54433988 -33.45332463  15.99941612 
       77   2   -31.99883225 -31.99883225  17.45390850 
       78   1   -30.54433988 -30.54433988  18.90840087 
       79   2   -31.99883225 -29.08984750  20.36289325 
       80   1   -30.54433988 -27.63535513  21.81738562 
       81   2   -31.99883225 -26.18086275  23.27187800 
       82   1   -30.54433988 -24.72637038  24.72637037 
       83   2   -31.99883225 -23.27187800  26.18086275 
       84   2   -29.08984750 -37.81680175  14.54492375 
       85   1   -27.63535513 -36.36230938  15.99941612 
       86   2   -29.08984750 -34.90781700  17.45390850 
       87   1   -27.63535513 -33.45332463  18.90840087 
       88   2   -29.08984750 -31.99883225  20.36289325 
       89   1   -27.63535513 -30.54433988  21.81738562 
       90   2   -29.08984750 -29.08984750  23.27187800 
       91   1   -27.63535513 -27.63535513  24.72637037 
       92   2   -29.08984750 -26.18086275  26.18086275 
       93   2   -26.18086275 -37.81680175  17.45390850 
       94   1   -24.72637038 -36.36230938  18.90840087 
       95   2   -26.18086275 -34.90781700  20.36289325 
       96   1   -24.72637038 -33.45332463  21.81738562 
       97   2   -26.18086275 -31.99883225  23.27187800 
       98   1   -24.72637038 -30.54433988  24.72637037 
       99   2   -26.18086275 -29.08984750  26.18086275 
      100   2   -23.27187800 -37.81680175  20.36289325 
      101   1   -21.81738563 -36.36230938  21.81738562 
      102   2   -23.27187800 -34.90781700  23.27187800 
      103   1   -21.81738563 -33.45332463  24.72637037 
      104   2   -23.27187800 -31.99883225  26.18086275 
      105   2   -20.36289325 -37.81680175  23.27187800 
      106   1   -18.90840088 -36.36230938  24.72637037 
      107   2   -20.36289325 -34.90781700  26.18086275 
      108   3   -36.36230938 -36.36230938  1.45449237 
      109   2   -37.81680175 -34.90781700  2.90898475 
      110   3   -36.36230938 -33.45332463  4.36347712 
      111   2   -37.81680175 -31.99883225  5.81796950 
      112   1   -36.36230938 -30.54433988  7.27246187 
      113   2   -37.81680175 -29.08984750  8.72695425 
      114   1   -36.36230938 -27.63535513  10.18144662 
      115   2   -37.81680175 -26.18086275  11.63593900 
      116   1   -36.36230938 -24.72637038  13.09043137 
      117   2   -37.81680175 -23.27187800  14.54492375 
      118   1   -36.36230938 -21.81738563  15.99941612 
      119   2   -37.81680175 -20.36289325  17.45390850 
      120   1   -36.36230938 -18.90840088  18.90840087 
      121   2   -37.81680175 -17.45390850  20.36289325 
      122   1   -36.36230938 -15.99941613  21.81738562 
      123   2   -37.81680175 -14.54492375  23.27187800 
      124   1   -36.36230938 -13.09043138  24.72637037 
      125   2   -34.90781700 -37.81680175  2.90898475 
      126   3   -33.45332463 -36.36230938  4.36347712 
      127   2   -34.90781700 -34.90781700  5.81796950 
      128   1   -33.45332463 -33.45332463  7.27246187 
      129   2   -34.90781700 -31.99883225  8.72695425 
      130   1   -33.45332463 -30.54433988  10.18144662 
      131   2   -34.90781700 -29.08984750  11.63593900 
      132   1   -33.45332463 -27.63535513  13.09043137 
      133   2   -34.90781700 -26.18086275  14.54492375 
      134   1   -33.45332463 -24.72637038  15.99941612 
      135   2   -34.90781700 -23.27187800  17.45390850 
      136   1   -33.45332463 -21.81738563  18.90840087 
      137   2   -34.90781700 -20.36289325  20.36289325 
      138   1   -33.45332463 -18.90840088  21.81738562 
      139   2   -34.90781700 -17.45390850  23.27187800 
      140   1   -33.45332463 -15.99941613  24.72637037 
      141   2   -34.90781700 -14.54492375  26.18086275 
      142   2   -31.99883225 -37.81680175  5.81796950 
      143   1   -30.54433988 -36.36230938  7.27246187 
      144   2   -31.99883225 -34.90781700  8.72695425 
      145   1   -30.54433988 -33.45332463  10.18144662 
      146   2   -31.99883225 -31.99883225  11.63593900 
      147   1   -30.54433988 -30.54433988  13.09043137 
      148   2   -31.99883225 -29.08984750  14.54492375 
      149   1   -30.54433988 -27.63535513  15.99941612 
      150   2   -31.99883225 -26.18086275  17.45390850 
      151   1   -30.54433988 -24.72637038  18.90840087 
      152   2   -31.99883225 -23.27187800  20.36289325 
      153   1   -30.54433988 -21.81738563  21.81738562 
      154   2   -31.99883225 -20.36289325  23.27187800 
      155   1   -30.54433988 -18.90840088  24.72637037 
      156   2   -31.99883225 -17.45390850  26.18086275 
      157   2   -29.08984750 -37.81680175  8.72695425 
      158   1   -27.63535513 -36.36230938  10.18144662 
      159   2   -29.08984750 -34.90781700  11.63593900 
      160   1   -27.63535513 -33.45332463  13.09043137 
      161   2   -29.08984750 -31.99883225  14.54492375 
      162   1   -27.63535513 -30.54433988  15.99941612 
      163   2   -29.08984750 -29.08984750  17.45390850 
      164   1   -27.63535513 -27.63535513  18.90840087 
      165   2   -29.08984750 -26.18086275  20.36289325 
      166   1   -27.63535513 -24.72637038  21.81738562 
      167   2   -29.08984750 -23.27187800  23.27187800 
      168   1   -27.63535513 -21.81738563  24.72637037 
      169   2   -29.08984750 -20.36289325  26.18086275 
      170   2   -26.18086275 -37.81680175  11.63593900 
      171   1   -24.72637038 -36.36230938  13.09043137 
      172   2   -26.18086275 -34.90781700  14.54492375 
      173   1   -24.72637038 -33.45332463  15.99941612 
      174   2   -26.18086275 -31.99883225  17.45390850 
      175   1   -24.72637038 -30.54433988  18.90840087 
      176   2   -26.18086275 -29.08984750  20.36289325 
      177   1   -24.72637038 -27.63535513  21.81738562 
      178   2   -26.18086275 -26.18086275  23.27187800 
      179   1   -24.72637038 -24.72637038  24.72637037 
      180   2   -26.18086275 -23.27187800  26.18086275 
      181   2   -23.27187800 -37.81680175  14.54492375 
      182   1   -21.81738563 -36.36230938  15.99941612 
      183   2   -23.27187800 -34.90781700  17.45390850 
      184   1   -21.81738563 -33.45332463  18.90840087 
      185   2   -23.27187800 -31.99883225  20.36289325 
      186   1   -21.81738563 -30.54433988  21.81738562 
      187   2   -23.27187800 -29.08984750  23.27187800 
      188   1   -21.81738563 -27.63535513  24.72637037 
      189   2   -23.27187800 -26.18086275  26.18086275 
      190   2   -20.36289325 -37.81680175  17.45390850 
      191   1   -18.90840088 -36.36230938  18.90840087 
      192   2   -20.36289325 -34.90781700  20.36289325 
      193   1   -18.90840088 -33.45332463  21.81738562 
      194   2   -20.36289325 -31.99883225  23.27187800 
      195   1   -18.90840088 -30.54433988  24.72637037 
      196   2   -20.36289325 -29.08984750  26.18086275 
      197   2   -17.45390850 -37.81680175  20.36289325 
      198   1   -15.99941613 -36.36230938  21.81738562 
      199   2   -17.45390850 -34.90781700  23.27187800 
      200   1   -15.99941613 -33.45332463  24.72637037 
      201   2   -17.45390850 -31.99883225  26.18086275 
      202   2   -14.54492375 -37.81680175  23.27187800 
      203   1   -13.09043138 -36.36230938  24.72637037 
      204   2   -14.54492375 -34.90781700  26.18086275 
      205   3   -36.36230938 -36.36230938 -4.36347713 
      206   2   -37.81680175 -34.90781700 -2.90898475 
      207   3   -36.36230938 -33.45332463 -1.45449238 
      208   2   -37.81680175 -31.99883225 -0.00000000 
      209   3   -36.36230938 -30.54433988  1.45449237 
      210   2   -37.81680175 -29.08984750  2.90898475 
      211   3   -36.36230938 -27.63535513  4.36347712 
      212   2   -37.81680175 -26.18086275  5.81796950 
      213   1   -36.36230938 -24.72637038  7.27246187 
      214   2   -37.81680175 -23.27187800  8.72695425 
      215   1   -36.36230938 -21.81738563  10.18144662 
      216   2   -37.81680175 -20.36289325  11.63593900 
      217   1   -36.36230938 -18.90840088  13.09043137 
      218   2   -37.81680175 -17.45390850  14.54492375 
      219   1   -36.36230938 -15.99941613  15.99941612 
      220   2   -37.81680175 -14.54492375  17.45390850 
      221   1   -36.36230938 -13.09043138  18.90840087 
      222   2   -37.81680175 -11.63593900  20.36289325 
      223   1   -36.36230938 -10.18144663  21.81738562 
      224   2   -37.81680175 -8.72695425  23.27187800 
      225   1   -36.36230938 -7.27246188  24.72637037 
      226   2   -34.90781700 -37.81680175 -2.90898475 
      227   3   -33.45332463 -36.36230938 -1.45449238 
      228   2   -34.90781700 -34.90781700 -0.00000000 
      229   3   -33.45332463 -33.45332463  1.45449237 
      230   2   -34.90781700 -31.99883225  2.90898475 
      231   3   -33.45332463 -30.54433988  4.36347712 
      232   2   -34.90781700 -29.08984750  5.81796950 
      233   1   -33.45332463 -27.63535513  7.27246187 
      234   2   -34.90781700 -26.18086275  8.72695425 
      235   1   -33.45332463 -24.72637038  10.18144662 
      236   2   -34.90781700 -23.27187800  11.63593900 
      237   1   -33.45332463 -21.81738563  13.09043137 
      238   2   -34.90781700 -20.36289325  14.54492375 
      239   1   -33.45332463 -18.90840088  15.99941612 
      240   2   -34.90781700 -17.45390850  17.45390850 
      241   1   -33.45332463 -15.99941613  18.90840087 
      242   2   -34.90781700 -14.54492375  20.36289325 
      243   1   -33.45332463 -13.09043138  21.81738562 
      244   2   -34.90781700 -11.63593900  23.27187800 
      245   1   -33.45332463 -10.18144663  24.72637037 
      246   2   -34.90781700 -8.72695425  26.18086275 
      247   2   -31.99883225 -37.81680175 -0.00000000 
      248   3   -30.54433988 -36.36230938  1.45449237 
      249   2   -31.99883225 -34.90781700  2.90898475 
      250   3   -30.54433988 -33.45332463  4.36347712 
      251   2   -31.99883225 -31.99883225  5.81796950 
      252   1   -30.54433988 -30.54433988  7.27246187 
      253   2   -31.99883225 -29.08984750  8.72695425 
      254   1   -30.54433988 -27.63535513  10.18144662 
      255   2   -31.99883225 -26.18086275  11.63593900 
      256   1   -30.54433988 -24.72637038  13.09043137 
      257   2   -31.99883225 -23.27187800  14.54492375 
      258   1   -30.54433988 -21.81738563  15.99941612 
      259   2   -31.99883225 -20.36289325  17.45390850 
      260   1   -30.54433988 -18.90840088  18.90840087 
      261   2   -31.99883225 -17.45390850  20.36289325 
      262   1   -30.54433988 -15.99941613  21.81738562 
      263   2   -31.99883225 -14.54492375  23.27187800 
      264   1   -30.54433988 -13.09043138  24.72637037 
      265   2   -31.99883225 -11.63593900  26.18086275 
      266   2   -29.08984750 -37.81680175  2.90898475 
      267   3   -27.63535513 -36.36230938  4.36347712 
      268   2   -29.08984750 -34.90781700  5.81796950 
      269   1   -27.63535513 -33.45332463  7.27246187 
      270   2   -29.08984750 -31.99883225  8.72695425 
      271   1   -27.63535513 -30.54433988  10.18144662 
      272   2   -29.08984750 -29.08984750  11.63593900 
      273   1   -27.63535513 -27.63535513  13.09043137 
      274   2   -29.08984750 -26.18086275  14.54492375 
      275   1   -27.63535513 -24.72637038  15.99941612 
      276   2   -29.08984750 -23.27187800  17.45390850 
      277   1   -27.63535513 -21.81738563  18.90840087 
      278   2   -29.08984750 -20.36289325  20.36289325 
      279   1   -27.63535513 -18.90840088  21.81738562 
      280   2   -29.08984750 -17.45390850  23.27187800 
      281   1   -27.63535513 -15.99941613  24.72637037 
      282   2   -29.08984750 -14.54492375  26.18086275 
      283   2   -26.18086275 -37.81680175  5.81796950 
      284   1   -24.72637038 -36.36230938  7.27246187 
      285   2   -26.18086275 -34.90781700  8.72695425 
      286   1   -24.72637038 -33.45332463  10.18144662 
      287   2   -26.18086275 -31.99883225  11.63593900 
      288   1   -24.72637038 -30.54433988  13.09043137 
      289   2   -26.18086275 -29.08984750  14.54492375 
      290   1   -24.72637038 -27.63535513  15.99941612 
      291   2   -26.18086275 -26.18086275  17.45390850 
      292   1   -24.72637038 -24.72637038  18.90840087 
      293   2   -26.18086275 -23.27187800  20.36289325 
      294   1   -24.72637038 -21.81738563  21.81738562 
      295   2   -26.18086275 -20.36289325  23.27187800 
      296   1   -24.72637038 -18.90840088  24.72637037 
      297   2   -26.18086275 -17.45390850  26.18086275 
      298   2   -23.27187800 -37.81680175  8.72695425 
      299   1   -21.81738563 -36.36230938  10.18144662 
      300   2   -23.27187800 -34.90781700  11.63593900 
      301   1   -21.81738563 -33.45332463  13.09043137 
      302   2   -23.27187800 -31.99883225  14.54492375 
      303   1   -21.81738563 -30.54433988  15.99941612 
      304   2   -23.27187800 -29.08984750  17.45390850 
      305   1   -21.81738563 -27.63535513  18.90840087 
      306   2   -23.27187800 -26.18086275  20.36289325 
      307   1   -21.81738563 -24.72637038  21.81738562 
      308   2   -23.27187800 -23.27187800  23.27187800 
      309   1   -21.81738563 -21.81738563  24.72637037 
      310   2   -23.27187800 -20.36289325  26.18086275 
      311   2   -20.36289325 -37.81680175  11.63593900 
      312   1   -18.90840088 -36.36230938  13.09043137 
      313   2   -20.36289325 -34.90781700  14.54492375 
      314   1   -18.90840088 -33.45332463  15.99941612 
      315   2   -20.36289325 -31.99883225  17.45390850 
      316   1   -18.90840088 -30.54433988  18.90840087 
      317   2   -20.36289325 -29.08984750  20.36289325 
      318   1   -18.90840088 -27.63535513  21.81738562 
      319   2   -20.36289325 -26.18086275  23.27187800 
      320   1   -18.90840088 -24.72637038  24.72637037 
      321   2   -20.36289325 -23.27187800  26.18086275 
      322   2   -17.45390850 -37.81680175  14.54492375 
      323   1   -15.99941613 -36.36230938  15.99941612 
      324   2   -17.45390850 -34.90781700  17.45390850 
      325   1   -15.99941613 -33.45332463  18.90840087 
      326   2   -17.45390850 -31.99883225  20.36289325 
      327   1   -15.99941613 -30.54433988  21.81738562 
      328   2   -17.45390850 -29.08984750  23.27187800 
      329   1   -15.99941613 -27.63535513  24.72637037 
      330   2   -17.45390850 -26.18086275  26.18086275 
      331   2   -14.54492375 -37.81680175  17.45390850 
      332   1   -13.09043138 -36.36230938  18.90840087 
      333   2   -14.54492375 -34.90781700  20.36289325 
      334   1   -13.09043138 -33.45332463  21.81738562 
      335   2   -14.54492375 -31.99883225  23.27187800 
      336   1   -13.09043138 -30.54433988  24.72637037 
      337   2   -14.54492375 -29.08984750  26.18086275 
      338   2   -11.63593900 -37.81680175  20.36289325 
      339   1   -10.18144663 -36.36230938  21.81738562 
      340   2   -11.63593900 -34.90781700  23.27187800 
      341   1   -10.18144663 -33.45332463  24.72637037 
      342   2   -11.63593900 -31.99883225  26.18086275 
      343   2   -8.72695425 -37.81680175  23.27187800 
      344   1   -7.27246188 -36.36230938  24.72637037 
      345   2   -8.72695425 -34.90781700  26.18086275 
      346   1   -36.36230938 -36.36230938 -10.18144663 
      347   2   -37.81680175 -34.90781700 -8.72695425 
      348   1   -36.36230938 -33.45332463 -7.27246188 
      349   2   -37.81680175 -31.99883225 -5.81796950 
      350   3   -36.36230938 -30.54433988 -4.36347713 
      351   2   -37.81680175 -29.08984750 -2.90898475 
      352   3   -36.36230938 -27.63535513 -1.45449238 
      353   2   -37.81680175 -26.18086275 -0.00000000 
      354   3   -36.36230938 -24.72637038  1.45449237 
      355   2   -37.81680175 -23.27187800  2.90898475 
      356   3   -36.36230938 -21.81738563  4.36347712 
      357   2   -37.81680175 -20.36289325  5.81796950 
      358   1   -36.36230938 -18.90840088  7.27246187 
      359   2   -37.81680175 -17.45390850  8.72695425 
      360   1   -36.36230938 -15.99941613  10.18144662 
      361   2   -37.81680175 -14.54492375  11.63593900 
      362   1   -36.36230938 -13.09043138  13.09043137 
      363   2   -37.81680175 -11.63593900  14.54492375 
      364   1   -36.36230938 -10.18144663  15.99941612 
      365   2   -37.81680175 -8.72695425  17.45390850 
      366   1   -36.36230938 -7.27246188  18.90840087 
      367   2   -37.81680175 -5.81796950  20.36289325 
      368   1   -36.36230938 -4.36347713  21.81738562 
      369   2   -37.81680175 -2.90898475  23.27187800 
      370   1   -36.36230938 -1.45449238  24.72637037 
      371   2   -34.90781700 -37.81680175 -8.72695425 
      372   1   -33.45332463 -36.36230938 -7.27246188 
      373   2   -34.90781700 -34.90781700 -5.81796950 
      374   3   -33.45332463 -33.45332463 -4.36347713 
      375   2   -34.90781700 -31.99883225 -2.90898475 
      376   3   -33.45332463 -30.54433988 -1.45449238 
      377   2   -34.90781700 -29.08984750 -0.00000000 
      378   3   -33.45332463 -27.63535513  1.45449237 
      379   2   -34.90781700 -26.18086275  2.90898475 
      380   3   -33.45332463 -24.72637038  4.36347712 
      381   2   -34.90781700 -23.27187800  5.81796950 
      382   1   -33.45332463 -21.81738563  7.27246187 
      383   2   -34.90781700 -20.36289325  8.72695425 
      384   1   -33.45332463 -18.90840088  10.18144662 
      385   2   -34.90781700 -17.45390850  11.63593900 
      386   1   -33.45332463 -15.99941613  13.09043137 
      387   2   -34.90781700 -14.54492375  14.54492375 
      388   1   -33.45332463 -13.09043138  15.99941612 
      389   2   -34.90781700 -11.63593900  17.45390850 
      390   1   -33.45332463 -10.18144663  18.90840087 
      391   2   -34.90781700 -8.72695425  20.36289325 
      392   1   -33.45332463 -7.27246188  21.81738562 
      393   2   -34.90781700 -5.81796950  23.27187800 
      394   1   -33.45332463 -4.36347713  24.72637037 
      395   2   -34.90781700 -2.90898475  26.18086275 
      396   2   -31.99883225 -37.81680175 -5.81796950 
      397   3   -30.54433988 -36.36230938 -4.36347713 
      398   2   -31.99883225 -34.90781700 -2.90898475 
      399   3   -30.54433988 -33.45332463 -1.45449238 
      400   2   -31.99883225 -31.99883225 -0.00000000 
      401   3   -30.54433988 -30.54433988  1.45449237 
      402   2   -31.99883225 -29.08984750  2.90898475 
      403   3   -30.54433988 -27.63535513  4.36347712 
      404   2   -31.99883225 -26.18086275  5.81796950 
      405   1   -30.54433988 -24.72637038  7.27246187 
      406   2   -31.99883225 -23.27187800  8.72695425 
      407   1   -30.54433988 -21.81738563  10.18144662 
      408   2   -31.99883225 -20.36289325  11.63593900 
      409   1   -30.54433988 -18.90840088  13.09043137 
      410   2   -31.99883225 -17.45390850  14.54492375 
      411   1   -30.54433988 -15.99941613  15.99941612 
      412   2   -31.99883225 -14.54492375  17.45390850 
      413   1   -30.54433988 -13.09043138  18.90840087 
      414   2   -31.99883225 -11.63593900  20.36289325 
      415   1   -30.54433988 -10.18144663  21.81738562 
      416   2   -31.99883225 -8.72695425  23.27187800 
      417   1   -30.54433988 -7.27246188  24.72637037 
      418   2   -31.99883225 -5.81796950  26.18086275 
      419   2   -29.08984750 -37.81680175 -2.90898475 
      420   3   -27.63535513 -36.36230938 -1.45449238 
      421   2   -29.08984750 -34.90781700 -0.00000000 
      422   3   -27.63535513 -33.45332463  1.45449237 
      423   2   -29.08984750 -31.99883225  2.90898475 
      424   3   -27.63535513 -30.54433988  4.36347712 
      425   2   -29.08984750 -29.08984750  5.81796950 
      426   1   -27.63535513 -27.63535513  7.27246187 
      427   2   -29.08984750 -26.18086275  8.72695425 
      428   1   -27.63535513 -24.72637038  10.18144662 
      429   2   -29.08984750 -23.27187800  11.63593900 
      430   1   -27.63535513 -21.81738563  13.09043137 
      431   2   -29.08984750 -20.36289325  14.54492375 
      432   1   -27.63535513 -18.90840088  15.99941612 
      433   2   -29.08984750 -17.45390850  17.45390850 
      434   1   -27.63535513 -15.99941613  18.90840087 
      435   2   -29.08984750 -14.54492375  20.36289325 
      436   1   -27.63535513 -13.09043138  21.81738562 
      437   2   -29.08984750 -11.63593900  23.27187800 
      438   1   -27.63535513 -10.18144663  24.72637037 
      439   2   -29.08984750 -8.72695425  26.18086275 
      440   2   -26.18086275 -37.81680175 -0.00000000 
      441   3   -24.72637038 -36.36230938  1.45449237 
      442   2   -26.18086275 -34.90781700  2.90898475 
      443   3   -24.72637038 -33.45332463  4.36347712 
      444   2   -26.18086275 -31.99883225  5.81796950 
      445   1   -24.72637038 -30.54433988  7.27246187 
      446   2   -26.18086275 -29.08984750  8.72695425 
      447   1   -24.72637038 -27.63535513  10.18144662 
      448   2   -26.18086275 -26.18086275  11.63593900 
      449   1   -24.72637038 -24.72637038  13.09043137 
      450   2   -26.18086275 -23.27187800  14.54492375 
      451   1   -24.72637038 -21.81738563  15.99941612 
      452   2   -26.18086275 -20.36289325  17.45390850 
      453   1   -24.72637038 -18.90840088  18.90840087 
      454   2   -26.18086275 -17.45390850  20.36289325 
      455   1   -24.72637038 -15.99941613  21.81738562 
      456   2   -26.18086275 -14.54492375  23.27187800 
      457   1   -24.72637038 -13.09043138  24.72637037 
      458   2   -26.18086275 -11.63593900  26.18086275 
      459   2   -23.27187800 -37.81680175  2.90898475 
      460   3   -21.81738563 -36.36230938  4.36347712 
      461   2   -23.27187800 -34.90781700  5.81796950 
      462   1   -21.81738563 -33.45332463  7.27246187 
      463   2   -23.27187800 -31.99883225  8.72695425 
      464   1   -21.81738563 -30.54433988  10.18144662 
      465   2   -23.27187800 -29.08984750  11.63593900 
      466   1   -21.81738563 -27.63535513  13.09043137 
      467   2   -23.27187800 -26.18086275  14.54492375 
      468   1   -21.81738563 -24.72637038  15.99941612 
      469   2   -23.27187800 -23.27187800  17.45390850 
      470   1   -21.81738563 -21.81738563  18.90840087 
      471   2   -23.27187800 -20.36289325  20.36289325 
      472   1   -21.81738563 -18.90840088  21.81738562 
      473   2   -23.27187800 -17.45390850  23.27187800 
      474   1   -21.81738563 -15.99941613  24.72637037 
      475   2   -23.27187800 -14.54492375  26.18086275 
      476   2   -20.36289325 -37.81680175  5.81796950 
      477   1   -18.90840088 -36.36230938  7.27246187 
      478   2   -20.36289325 -34.90781700  8.72695425 
      479   1   -18.90840088 -33.45332463  10.18144662 
      480   2   -20.36289325 -31.99883225  11.63593900 
      481   1   -18.90840088 -30.54433988  13.09043137 
      482   2   -20.36289325 -29.08984750  14.54492375 
      483   1   -18.90840088 -27.63535513  15.99941612 
      484   2   -20.36289325 -26.18086275  17.45390850 
      485   1   -18.90840088 -24.72637038  18.90840087 
      486   2   -20.36289325 -23.27187800  20.36289325 
      487   1   -18.90840088 -21.81738563  21.81738562 
      488   2   -20.36289325 -20.36289325  23.27187800 
      489   1   -18.90840088 -18.90840088  24.72637037 
      490   2   -20.36289325 -17.45390850  26.18086275 
      491   2   -17.45390850 -37.81680175  8.72695425 
      492   1   -15.99941613 -36.36230938  10.18144662 
      493   2   -17.45390850 -34.90781700  11.63593900 
      494   1   -15.99941613 -33.45332463  13.09043137 
      495   2   -17.45390850 -31.99883225  14.54492375 
      496   1   -15.99941613 -30.54433988  15.99941612 
      497   2   -17.45390850 -29.08984750  17.45390850 
      498   1   -15.99941613 -27.63535513  18.90840087 
      499   2   -17.45390850 -26.18086275  20.36289325 
      500   1   -15.99941613 -24.72637038  21.81738562 
      501   2   -17.45390850 -23.27187800  23.27187800 
      502   1   -15.99941613 -21.81738563  24.72637037 
      503   2   -17.45390850 -20.36289325  26.18086275 
      504   2   -14.54492375 -37.81680175  11.63593900 
      505   1   -13.09043138 -36.36230938  13.09043137 
      506   2   -14.54492375 -34.90781700  14.54492375 
      507   1   -13.09043138 -33.45332463  15.99941612 
      508   2   -14.54492375 -31.99883225  17.45390850 
      509   1   -13.09043138 -30.54433988  18.90840087 
      510   2   -14.54492375 -29.08984750  20.36289325 
      511   1   -13.09043138 -27.63535513  21.81738562 
      512   2   -14.54492375 -26.18086275  23.27187800 
      513   1   -13.09043138 -24.72637038  24.72637037 
      514   2   -14.54492375 -23.27187800  26.18086275 
      515   2   -11.63593900 -37.81680175  14.54492375 
      516   1   -10.18144663 -36.36230938  15.99941612 
      517   2   -11.63593900 -34.90781700  17.45390850 
      518   1   -10.18144663 -33.45332463  18.90840087 
      519   2   -11.63593900 -31.99883225  20.36289325 
      520   1   -10.18144663 -30.54433988  21.81738562 
      521   2   -11.63593900 -29.08984750  23.27187800 
      522   1   -10.18144663 -27.63535513  24.72637037 
      523   2   -11.63593900 -26.18086275  26.18086275 
      524   2   -8.72695425 -37.81680175  17.45390850 
      525   1   -7.27246188 -36.36230938  18.90840087 
      526   2   -8.72695425 -34.90781700  20.36289325 
      527   1   -7.27246188 -33.45332463  21.81738562 
      528   2   -8.72695425 -31.99883225  23.27187800 
      529   1   -7.27246188 -30.54433988  24.72637037 
      530   2   -8.72695425 -29.08984750  26.18086275 
      531   2   -5.81796950 -37.81680175  20.36289325 
      532   1   -4.36347713 -36.36230938  21.81738562 
      533   2   -5.81796950 -34.90781700  23.27187800 
      534   1   -4.36347713 -33.45332463  24.72637037 