LAMMPS configuration data file

  8993 atoms

  3 atom types

  -56.362309  56.362309  xlo xhi
  -56.362309  56.362309  ylo yhi
  -56.362309  56.362309  zlo zhi

 Masses

  1   32.065
  2   112.411
  3   78.960

 Atoms

        1   1   -31.99883225 -17.45390850  8.72695425 
        2   1   -31.99883225 -14.54492375  11.63593900 
        3   1   -31.99883225 -11.63593900  14.54492375 
        4   1   -31.99883225 -8.72695425  17.45390850 
        5   1   -29.08984750 -20.36289325  8.72695425 
        6   2   -30.54433988 -18.90840088  10.18144662 
        7   1   -29.08984750 -17.45390850  11.63593900 
        8   2   -30.54433988 -15.99941613  13.09043137 
        9   1   -29.08984750 -14.54492375  14.54492375 
       10   2   -30.54433988 -13.09043138  15.99941612 
       11   1   -29.08984750 -11.63593900  17.45390850 
       12   2   -30.54433988 -10.18144663  18.90840087 
       13   1   -29.08984750 -8.72695425  20.36289325 
       14   1   -26.18086275 -23.27187800  8.72695425 
       15   2   -27.63535513 -21.81738563  10.18144662 
       16   1   -26.18086275 -20.36289325  11.63593900 
       17   2   -27.63535513 -18.90840088  13.09043137 
       18   1   -26.18086275 -17.45390850  14.54492375 
       19   2   -27.63535513 -15.99941613  15.99941612 
       20   1   -26.18086275 -14.54492375  17.45390850 
       21   2   -27.63535513 -13.09043138  18.90840087 
       22   1   -26.18086275 -11.63593900  20.36289325 
       23   2   -27.63535513 -10.18144663  21.81738562 
       24   1   -26.18086275 -8.72695425  23.27187800 
       25   1   -23.27187800 -26.18086275  8.72695425 
       26   2   -24.72637038 -24.72637038  10.18144662 
       27   1   -23.27187800 -23.27187800  11.63593900 
       28   2   -24.72637038 -21.81738563  13.09043137 
       29   1   -23.27187800 -20.36289325  14.54492375 
       30   2   -24.72637038 -18.90840088  15.99941612 
       31   1   -23.27187800 -17.45390850  17.45390850 
       32   2   -24.72637038 -15.99941613  18.90840087 
       33   1   -23.27187800 -14.54492375  20.36289325 
       34   2   -24.72637038 -13.09043138  21.81738562 
       35   1   -23.27187800 -11.63593900  23.27187800 
       36   2   -24.72637038 -10.18144663  24.72637037 
       37   1   -23.27187800 -8.72695425  26.18086275 
       38   1   -20.36289325 -29.08984750  8.72695425 
       39   2   -21.81738563 -27.63535513  10.18144662 
       40   1   -20.36289325 -26.18086275  11.63593900 
       41   2   -21.81738563 -24.72637038  13.09043137 
       42   1   -20.36289325 -23.27187800  14.54492375 
       43   2   -21.81738563 -21.81738563  15.99941612 
       44   1   -20.36289325 -20.36289325  17.45390850 
       45   2   -21.81738563 -18.90840088  18.90840087 
       46   1   -20.36289325 -17.45390850  20.36289325 
       47   2   -21.81738563 -15.99941613  21.81738562 
       48   1   -20.36289325 -14.54492375  23.27187800 
       49   2   -21.81738563 -13.09043138  24.72637037 
       50   1   -20.36289325 -11.63593900  26.18086275 
       51   2   -21.81738563 -10.18144663  27.63535512 
       52   1   -20.36289325 -8.72695425  29.08984750 
       53   1   -17.45390850 -31.99883225  8.72695425 
       54   2   -18.90840088 -30.54433988  10.18144662 
       55   1   -17.45390850 -29.08984750  11.63593900 
       56   2   -18.90840088 -27.63535513  13.09043137 
       57   1   -17.45390850 -26.18086275  14.54492375 
       58   2   -18.90840088 -24.72637038  15.99941612 
       59   1   -17.45390850 -23.27187800  17.45390850 
       60   2   -18.90840088 -21.81738563  18.90840087 
       61   1   -17.45390850 -20.36289325  20.36289325 
       62   2   -18.90840088 -18.90840088  21.81738562 
       63   1   -17.45390850 -17.45390850  23.27187800 
       64   2   -18.90840088 -15.99941613  24.72637037 
       65   1   -17.45390850 -14.54492375  26.18086275 
       66   2   -18.90840088 -13.09043138  27.63535512 
       67   1   -17.45390850 -11.63593900  29.08984750 
       68   2   -18.90840088 -10.18144663  30.54433987 
       69   1   -17.45390850 -8.72695425  31.99883225 
       70   1   -14.54492375 -31.99883225  11.63593900 
       71   2   -15.99941613 -30.54433988  13.09043137 
       72   1   -14.54492375 -29.08984750  14.54492375 
       73   2   -15.99941613 -27.63535513  15.99941612 
       74   1   -14.54492375 -26.18086275  17.45390850 
       75   2   -15.99941613 -24.72637038  18.90840087 
       76   1   -14.54492375 -23.27187800  20.36289325 
       77   2   -15.99941613 -21.81738563  21.81738562 
       78   1   -14.54492375 -20.36289325  23.27187800 
       79   2   -15.99941613 -18.90840088  24.72637037 
       80   1   -14.54492375 -17.45390850  26.18086275 
       81   2   -15.99941613 -15.99941613  27.63535512 
       82   1   -14.54492375 -14.54492375  29.08984750 
       83   2   -15.99941613 -13.09043138  30.54433987 
       84   1   -14.54492375 -11.63593900  31.99883225 
       85   1   -11.63593900 -31.99883225  14.54492375 
       86   2   -13.09043138 -30.54433988  15.99941612 
       87   1   -11.63593900 -29.08984750  17.45390850 
       88   2   -13.09043138 -27.63535513  18.90840087 
       89   1   -11.63593900 -26.18086275  20.36289325 
       90   2   -13.09043138 -24.72637038  21.81738562 
       91   1   -11.63593900 -23.27187800  23.27187800 
       92   2   -13.09043138 -21.81738563  24.72637037 
       93   1   -11.63593900 -20.36289325  26.18086275 
       94   2   -13.09043138 -18.90840088  27.63535512 
       95   1   -11.63593900 -17.45390850  29.08984750 
       96   2   -13.09043138 -15.99941613  30.54433987 
       97   1   -11.63593900 -14.54492375  31.99883225 
       98   1   -8.72695425 -31.99883225  17.45390850 
       99   2   -10.18144663 -30.54433988  18.90840087 
      100   1   -8.72695425 -29.08984750  20.36289325 
      101   2   -10.18144663 -27.63535513  21.81738562 
      102   1   -8.72695425 -26.18086275  23.27187800 
      103   2   -10.18144663 -24.72637038  24.72637037 
      104   1   -8.72695425 -23.27187800  26.18086275 
      105   2   -10.18144663 -21.81738563  27.63535512 
      106   1   -8.72695425 -20.36289325  29.08984750 
      107   2   -10.18144663 -18.90840088  30.54433987 
      108   1   -8.72695425 -17.45390850  31.99883225 
      109   1   -34.90781700 -11.63593900  5.81796950 
      110   1   -34.90781700 -8.72695425  8.72695425 
      111   1   -34.90781700 -5.81796950  11.63593900 
      112   1   -31.99883225 -17.45390850  2.90898475 
      113   2   -33.45332463 -15.99941613  4.36347712 
      114   1   -31.99883225 -14.54492375  5.81796950 
      115   2   -33.45332463 -13.09043138  7.27246187 
      116   1   -31.99883225 -11.63593900  8.72695425 
      117   2   -33.45332463 -10.18144663  10.18144662 
      118   1   -31.99883225 -8.72695425  11.63593900 
      119   2   -33.45332463 -7.27246188  13.09043137 
      120   1   -31.99883225 -5.81796950  14.54492375 
      121   2   -33.45332463 -4.36347713  15.99941612 
      122   1   -31.99883225 -2.90898475  17.45390850 
      123   1   -29.08984750 -23.27187800 -0.00000000 
      124   2   -30.54433988 -21.81738563  1.45449237 
      125   1   -29.08984750 -20.36289325  2.90898475 
      126   2   -30.54433988 -18.90840088  4.36347712 
      127   1   -29.08984750 -17.45390850  5.81796950 
      128   2   -30.54433988 -15.99941613  7.27246187 
      129   1   -29.08984750 -14.54492375  8.72695425 
      130   2   -30.54433988 -13.09043138  10.18144662 
      131   1   -29.08984750 -11.63593900  11.63593900 
      132   2   -30.54433988 -10.18144663  13.09043137 
      133   1   -29.08984750 -8.72695425  14.54492375 
      134   2   -30.54433988 -7.27246188  15.99941612 
      135   1   -29.08984750 -5.81796950  17.45390850 
      136   2   -30.54433988 -4.36347713  18.90840087 
      137   1   -29.08984750 -2.90898475  20.36289325 
      138   2   -30.54433988 -1.45449238  21.81738562 
      139   1   -29.08984750 -0.00000000  23.27187800 
      140   1   -26.18086275 -26.18086275 -0.00000000 
      141   2   -27.63535513 -24.72637038  1.45449237 
      142   1   -26.18086275 -23.27187800  2.90898475 
      143   2   -27.63535513 -21.81738563  4.36347712 
      144   1   -26.18086275 -20.36289325  5.81796950 
      145   2   -27.63535513 -18.90840088  7.27246187 
      146   1   -26.18086275 -17.45390850  8.72695425 
      147   2   -27.63535513 -15.99941613  10.18144662 
      148   1   -26.18086275 -14.54492375  11.63593900 
      149   2   -27.63535513 -13.09043138  13.09043137 
      150   1   -26.18086275 -11.63593900  14.54492375 
      151   2   -27.63535513 -10.18144663  15.99941612 
      152   1   -26.18086275 -8.72695425  17.45390850 
      153   2   -27.63535513 -7.27246188  18.90840087 
      154   1   -26.18086275 -5.81796950  20.36289325 
      155   2   -27.63535513 -4.36347713  21.81738562 
      156   1   -26.18086275 -2.90898475  23.27187800 
      157   2   -27.63535513 -1.45449238  24.72637037 
      158   1   -26.18086275 -0.00000000  26.18086275 
      159   1   -23.27187800 -29.08984750 -0.00000000 
      160   2   -24.72637038 -27.63535513  1.45449237 
      161   1   -23.27187800 -26.18086275  2.90898475 
      162   2   -24.72637038 -24.72637038  4.36347712 
      163   1   -23.27187800 -23.27187800  5.81796950 
      164   2   -24.72637038 -21.81738563  7.27246187 
      165   1   -23.27187800 -20.36289325  8.72695425 
      166   2   -24.72637038 -18.90840088  10.18144662 
      167   1   -23.27187800 -17.45390850  11.63593900 
      168   2   -24.72637038 -15.99941613  13.09043137 
      169   1   -23.27187800 -14.54492375  14.54492375 
      170   2   -24.72637038 -13.09043138  15.99941612 
      171   1   -23.27187800 -11.63593900  17.45390850 
      172   2   -24.72637038 -10.18144663  18.90840087 
      173   1   -23.27187800 -8.72695425  20.36289325 
      174   2   -24.72637038 -7.27246188  21.81738562 
      175   1   -23.27187800 -5.81796950  23.27187800 
      176   2   -24.72637038 -4.36347713  24.72637037 
      177   1   -23.27187800 -2.90898475  26.18086275 
      178   2   -24.72637038 -1.45449238  27.63535512 
      179   1   -23.27187800 -0.00000000  29.08984750 
      180   2   -21.81738563 -30.54433988  1.45449237 
      181   1   -20.36289325 -29.08984750  2.90898475 
      182   2   -21.81738563 -27.63535513  4.36347712 
      183   1   -20.36289325 -26.18086275  5.81796950 
      184   2   -21.81738563 -24.72637038  7.27246187 
      185   1   -20.36289325 -23.27187800  8.72695425 
      186   2   -21.81738563 -21.81738563  10.18144662 
      187   1   -20.36289325 -20.36289325  11.63593900 
      188   2   -21.81738563 -18.90840088  13.09043137 
      189   1   -20.36289325 -17.45390850  14.54492375 
      190   2   -21.81738563 -15.99941613  15.99941612 
      191   1   -20.36289325 -14.54492375  17.45390850 
      192   2   -21.81738563 -13.09043138  18.90840087 
      193   1   -20.36289325 -11.63593900  20.36289325 
      194   2   -21.81738563 -10.18144663  21.81738562 
      195   1   -20.36289325 -8.72695425  23.27187800 
      196   2   -21.81738563 -7.27246188  24.72637037 
      197   1   -20.36289325 -5.81796950  26.18086275 
      198   2   -21.81738563 -4.36347713  27.63535512 
      199   1   -20.36289325 -2.90898475  29.08984750 
      200   2   -21.81738563 -1.45449238  30.54433987 
      201   1   -17.45390850 -31.99883225  2.90898475 
      202   2   -18.90840088 -30.54433988  4.36347712 
      203   1   -17.45390850 -29.08984750  5.81796950 
      204   2   -18.90840088 -27.63535513  7.27246187 
      205   1   -17.45390850 -26.18086275  8.72695425 
      206   2   -18.90840088 -24.72637038  10.18144662 
      207   1   -17.45390850 -23.27187800  11.63593900 
      208   2   -18.90840088 -21.81738563  13.09043137 
      209   1   -17.45390850 -20.36289325  14.54492375 
      210   2   -18.90840088 -18.90840088  15.99941612 
      211   1   -17.45390850 -17.45390850  17.45390850 
      212   2   -18.90840088 -15.99941613  18.90840087 
      213   1   -17.45390850 -14.54492375  20.36289325 
      214   2   -18.90840088 -13.09043138  21.81738562 
      215   1   -17.45390850 -11.63593900  23.27187800 
      216   2   -18.90840088 -10.18144663  24.72637037 
      217   1   -17.45390850 -8.72695425  26.18086275 
      218   2   -18.90840088 -7.27246188  27.63535512 
      219   1   -17.45390850 -5.81796950  29.08984750 
      220   2   -18.90840088 -4.36347713  30.54433987 
      221   1   -17.45390850 -2.90898475  31.99883225 
      222   2   -15.99941613 -33.45332463  4.36347712 
      223   1   -14.54492375 -31.99883225  5.81796950 
      224   2   -15.99941613 -30.54433988  7.27246187 
      225   1   -14.54492375 -29.08984750  8.72695425 
      226   2   -15.99941613 -27.63535513  10.18144662 
      227   1   -14.54492375 -26.18086275  11.63593900 
      228   2   -15.99941613 -24.72637038  13.09043137 
      229   1   -14.54492375 -23.27187800  14.54492375 
      230   2   -15.99941613 -21.81738563  15.99941612 
      231   1   -14.54492375 -20.36289325  17.45390850 
      232   2   -15.99941613 -18.90840088  18.90840087 
      233   1   -14.54492375 -17.45390850  20.36289325 
      234   2   -15.99941613 -15.99941613  21.81738562 
      235   1   -14.54492375 -14.54492375  23.27187800 
      236   2   -15.99941613 -13.09043138  24.72637037 
      237   1   -14.54492375 -11.63593900  26.18086275 
      238   2   -15.99941613 -10.18144663  27.63535512 
      239   1   -14.54492375 -8.72695425  29.08984750 
      240   2   -15.99941613 -7.27246188  30.54433987 
      241   1   -14.54492375 -5.81796950  31.99883225 
      242   2   -15.99941613 -4.36347713  33.45332462 
      243   1   -11.63593900 -34.90781700  5.81796950 
      244   2   -13.09043138 -33.45332463  7.27246187 
      245   1   -11.63593900 -31.99883225  8.72695425 
      246   2   -13.09043138 -30.54433988  10.18144662 
      247   1   -11.63593900 -29.08984750  11.63593900 
      248   2   -13.09043138 -27.63535513  13.09043137 
      249   1   -11.63593900 -26.18086275  14.54492375 
      250   2   -13.09043138 -24.72637038  15.99941612 
      251   1   -11.63593900 -23.27187800  17.45390850 
      252   2   -13.09043138 -21.81738563  18.90840087 
      253   1   -11.63593900 -20.36289325  20.36289325 
      254   2   -13.09043138 -18.90840088  21.81738562 
      255   1   -11.63593900 -17.45390850  23.27187800 
      256   2   -13.09043138 -15.99941613  24.72637037 
      257   1   -11.63593900 -14.54492375  26.18086275 
      258   2   -13.09043138 -13.09043138  27.63535512 
      259   1   -11.63593900 -11.63593900  29.08984750 
      260   2   -13.09043138 -10.18144663  30.54433987 
      261   1   -11.63593900 -8.72695425  31.99883225 
      262   2   -13.09043138 -7.27246188  33.45332462 
      263   1   -11.63593900 -5.81796950  34.90781700 
      264   1   -8.72695425 -34.90781700  8.72695425 
      265   2   -10.18144663 -33.45332463  10.18144662 
      266   1   -8.72695425 -31.99883225  11.63593900 
      267   2   -10.18144663 -30.54433988  13.09043137 
      268   1   -8.72695425 -29.08984750  14.54492375 
      269   2   -10.18144663 -27.63535513  15.99941612 
      270   1   -8.72695425 -26.18086275  17.45390850 
      271   2   -10.18144663 -24.72637038  18.90840087 
      272   1   -8.72695425 -23.27187800  20.36289325 
      273   2   -10.18144663 -21.81738563  21.81738562 
      274   1   -8.72695425 -20.36289325  23.27187800 
      275   2   -10.18144663 -18.90840088  24.72637037 
      276   1   -8.72695425 -17.45390850  26.18086275 
      277   2   -10.18144663 -15.99941613  27.63535512 
      278   1   -8.72695425 -14.54492375  29.08984750 
      279   2   -10.18144663 -13.09043138  30.54433987 
      280   1   -8.72695425 -11.63593900  31.99883225 
      281   2   -10.18144663 -10.18144663  33.45332462 
      282   1   -8.72695425 -8.72695425  34.90781700 
      283   1   -5.81796950 -34.90781700  11.63593900 
      284   2   -7.27246188 -33.45332463  13.09043137 
      285   1   -5.81796950 -31.99883225  14.54492375 
      286   2   -7.27246188 -30.54433988  15.99941612 
      287   1   -5.81796950 -29.08984750  17.45390850 
      288   2   -7.27246188 -27.63535513  18.90840087 
      289   1   -5.81796950 -26.18086275  20.36289325 
      290   2   -7.27246188 -24.72637038  21.81738562 
      291   1   -5.81796950 -23.27187800  23.27187800 
      292   2   -7.27246188 -21.81738563  24.72637037 
      293   1   -5.81796950 -20.36289325  26.18086275 
      294   2   -7.27246188 -18.90840088  27.63535512 
      295   1   -5.81796950 -17.45390850  29.08984750 
      296   2   -7.27246188 -15.99941613  30.54433987 
      297   1   -5.81796950 -14.54492375  31.99883225 
      298   2   -7.27246188 -13.09043138  33.45332462 
      299   1   -5.81796950 -11.63593900  34.90781700 
      300   2   -4.36347713 -33.45332463  15.99941612 
      301   1   -2.90898475 -31.99883225  17.45390850 
      302   2   -4.36347713 -30.54433988  18.90840087 
      303   1   -2.90898475 -29.08984750  20.36289325 
      304   2   -4.36347713 -27.63535513  21.81738562 
      305   1   -2.90898475 -26.18086275  23.27187800 
      306   2   -4.36347713 -24.72637038  24.72637037 
      307   1   -2.90898475 -23.27187800  26.18086275 
      308   2   -4.36347713 -21.81738563  27.63535512 
      309   1   -2.90898475 -20.36289325  29.08984750 
      310   2   -4.36347713 -18.90840088  30.54433987 
      311   1   -2.90898475 -17.45390850  31.99883225 
      312   2   -4.36347713 -15.99941613  33.45332462 
      313   2   -1.45449238 -30.54433988  21.81738562 
      314   1   -0.00000000 -29.08984750  23.27187800 
      315   2   -1.45449238 -27.63535513  24.72637037 
      316   1   -0.00000000 -26.18086275  26.18086275 
      317   2   -1.45449238 -24.72637038  27.63535512 
      318   1   -0.00000000 -23.27187800  29.08984750 
      319   2   -1.45449238 -21.81738563  30.54433987 
      320   1   -34.90781700 -11.63593900 -0.00000000 
      321   1   -34.90781700 -8.72695425  2.90898475 
      322   2   -36.36230938 -7.27246188  4.36347712 
      323   1   -34.90781700 -5.81796950  5.81796950 
      324   2   -36.36230938 -4.36347713  7.27246187 
      325   1   -34.90781700 -2.90898475  8.72695425 
      326   1   -34.90781700 -0.00000000  11.63593900 
      327   1   -31.99883225 -17.45390850 -2.90898475 
      328   2   -33.45332463 -15.99941613 -1.45449238 
      329   1   -31.99883225 -14.54492375 -0.00000000 
      330   2   -33.45332463 -13.09043138  1.45449237 
      331   1   -31.99883225 -11.63593900  2.90898475 
      332   2   -33.45332463 -10.18144663  4.36347712 
      333   1   -31.99883225 -8.72695425  5.81796950 
      334   2   -33.45332463 -7.27246188  7.27246187 
      335   1   -31.99883225 -5.81796950  8.72695425 
      336   2   -33.45332463 -4.36347713  10.18144662 
      337   1   -31.99883225 -2.90898475  11.63593900 
      338   2   -33.45332463 -1.45449238  13.09043137 
      339   1   -31.99883225 -0.00000000  14.54492375 
      340   2   -33.45332463  1.45449237  15.99941612 
      341   1   -31.99883225  2.90898475  17.45390850 
      342   1   -29.08984750 -20.36289325 -2.90898475 
      343   2   -30.54433988 -18.90840088 -1.45449238 
      344   1   -29.08984750 -17.45390850 -0.00000000 
      345   2   -30.54433988 -15.99941613  1.45449237 
      346   1   -29.08984750 -14.54492375  2.90898475 
      347   2   -30.54433988 -13.09043138  4.36347712 
      348   1   -29.08984750 -11.63593900  5.81796950 
      349   2   -30.54433988 -10.18144663  7.27246187 
      350   1   -29.08984750 -8.72695425  8.72695425 
      351   2   -30.54433988 -7.27246188  10.18144662 
      352   1   -29.08984750 -5.81796950  11.63593900 
      353   2   -30.54433988 -4.36347713  13.09043137 
      354   1   -29.08984750 -2.90898475  14.54492375 
      355   2   -30.54433988 -1.45449238  15.99941612 
      356   1   -29.08984750 -0.00000000  17.45390850 
      357   2   -30.54433988  1.45449237  18.90840087 
      358   1   -29.08984750  2.90898475  20.36289325 
      359   1   -26.18086275 -26.18086275 -5.81796950 
      360   2   -27.63535513 -24.72637038 -4.36347713 
      361   1   -26.18086275 -23.27187800 -2.90898475 
      362   2   -27.63535513 -21.81738563 -1.45449238 
      363   1   -26.18086275 -20.36289325 -0.00000000 
      364   2   -27.63535513 -18.90840088  1.45449237 
      365   1   -26.18086275 -17.45390850  2.90898475 
      366   2   -27.63535513 -15.99941613  4.36347712 
      367   1   -26.18086275 -14.54492375  5.81796950 
      368   2   -27.63535513 -13.09043138  7.27246187 
      369   1   -26.18086275 -11.63593900  8.72695425 
      370   2   -27.63535513 -10.18144663  10.18144662 
      371   1   -26.18086275 -8.72695425  11.63593900 
      372   2   -27.63535513 -7.27246188  13.09043137 
      373   1   -26.18086275 -5.81796950  14.54492375 
      374   2   -27.63535513 -4.36347713  15.99941612 
      375   1   -26.18086275 -2.90898475  17.45390850 
      376   2   -27.63535513 -1.45449238  18.90840087 
      377   1   -26.18086275 -0.00000000  20.36289325 
      378   2   -27.63535513  1.45449237  21.81738562 
      379   1   -26.18086275  2.90898475  23.27187800 
      380   2   -27.63535513  4.36347712  24.72637037 
      381   1   -26.18086275  5.81796950  26.18086275 
      382   2   -24.72637038 -27.63535513 -4.36347713 
      383   1   -23.27187800 -26.18086275 -2.90898475 
      384   2   -24.72637038 -24.72637038 -1.45449238 
      385   1   -23.27187800 -23.27187800 -0.00000000 
      386   2   -24.72637038 -21.81738563  1.45449237 
      387   1   -23.27187800 -20.36289325  2.90898475 
      388   2   -24.72637038 -18.90840088  4.36347712 
      389   1   -23.27187800 -17.45390850  5.81796950 
      390   2   -24.72637038 -15.99941613  7.27246187 
      391   1   -23.27187800 -14.54492375  8.72695425 
      392   2   -24.72637038 -13.09043138  10.18144662 
      393   1   -23.27187800 -11.63593900  11.63593900 
      394   2   -24.72637038 -10.18144663  13.09043137 
      395   1   -23.27187800 -8.72695425  14.54492375 
      396   2   -24.72637038 -7.27246188  15.99941612 
      397   1   -23.27187800 -5.81796950  17.45390850 
      398   2   -24.72637038 -4.36347713  18.90840087 
      399   1   -23.27187800 -2.90898475  20.36289325 
      400   2   -24.72637038 -1.45449238  21.81738562 
      401   1   -23.27187800 -0.00000000  23.27187800 
      402   2   -24.72637038  1.45449237  24.72637037 
      403   1   -23.27187800  2.90898475  26.18086275 
      404   2   -24.72637038  4.36347712  27.63535512 
      405   1   -20.36289325 -29.08984750 -2.90898475 
      406   2   -21.81738563 -27.63535513 -1.45449238 
      407   1   -20.36289325 -26.18086275 -0.00000000 
      408   2   -21.81738563 -24.72637038  1.45449237 
      409   1   -20.36289325 -23.27187800  2.90898475 
      410   2   -21.81738563 -21.81738563  4.36347712 
      411   1   -20.36289325 -20.36289325  5.81796950 
      412   2   -21.81738563 -18.90840088  7.27246187 
      413   1   -20.36289325 -17.45390850  8.72695425 
      414   2   -21.81738563 -15.99941613  10.18144662 
      415   1   -20.36289325 -14.54492375  11.63593900 
      416   2   -21.81738563 -13.09043138  13.09043137 
      417   1   -20.36289325 -11.63593900  14.54492375 
      418   2   -21.81738563 -10.18144663  15.99941612 
      419   1   -20.36289325 -8.72695425  17.45390850 
      420   2   -21.81738563 -7.27246188  18.90840087 
      421   1   -20.36289325 -5.81796950  20.36289325 
      422   2   -21.81738563 -4.36347713  21.81738562 
      423   1   -20.36289325 -2.90898475  23.27187800 
      424   2   -21.81738563 -1.45449238  24.72637037 
      425   1   -20.36289325 -0.00000000  26.18086275 
      426   2   -21.81738563  1.45449237  27.63535512 
      427   1   -20.36289325  2.90898475  29.08984750 
      428   1   -17.45390850 -31.99883225 -2.90898475 
      429   2   -18.90840088 -30.54433988 -1.45449238 
      430   1   -17.45390850 -29.08984750 -0.00000000 
      431   2   -18.90840088 -27.63535513  1.45449237 
      432   1   -17.45390850 -26.18086275  2.90898475 
      433   2   -18.90840088 -24.72637038  4.36347712 
      434   1   -17.45390850 -23.27187800  5.81796950 
      435   2   -18.90840088 -21.81738563  7.27246187 
      436   1   -17.45390850 -20.36289325  8.72695425 
      437   2   -18.90840088 -18.90840088  10.18144662 
      438   1   -17.45390850 -17.45390850  11.63593900 
      439   2   -18.90840088 -15.99941613  13.09043137 
      440   1   -17.45390850 -14.54492375  14.54492375 
      441   2   -18.90840088 -13.09043138  15.99941612 
      442   1   -17.45390850 -11.63593900  17.45390850 
      443   2   -18.90840088 -10.18144663  18.90840087 
      444   1   -17.45390850 -8.72695425  20.36289325 
      445   2   -18.90840088 -7.27246188  21.81738562 
      446   1   -17.45390850 -5.81796950  23.27187800 
      447   2   -18.90840088 -4.36347713  24.72637037 
      448   1   -17.45390850 -2.90898475  26.18086275 
      449   2   -18.90840088 -1.45449238  27.63535512 
      450   1   -17.45390850 -0.00000000  29.08984750 
      451   2   -18.90840088  1.45449237  30.54433987 
      452   1   -17.45390850  2.90898475  31.99883225 
      453   2   -15.99941613 -33.45332463 -1.45449238 
      454   1   -14.54492375 -31.99883225 -0.00000000 
      455   2   -15.99941613 -30.54433988  1.45449237 
      456   1   -14.54492375 -29.08984750  2.90898475 
      457   2   -15.99941613 -27.63535513  4.36347712 
      458   1   -14.54492375 -26.18086275  5.81796950 
      459   2   -15.99941613 -24.72637038  7.27246187 
      460   1   -14.54492375 -23.27187800  8.72695425 
      461   2   -15.99941613 -21.81738563  10.18144662 
      462   1   -14.54492375 -20.36289325  11.63593900 
      463   2   -15.99941613 -18.90840088  13.09043137 
      464   1   -14.54492375 -17.45390850  14.54492375 
      465   2   -15.99941613 -15.99941613  15.99941612 
      466   1   -14.54492375 -14.54492375  17.45390850 
      467   2   -15.99941613 -13.09043138  18.90840087 
      468   1   -14.54492375 -11.63593900  20.36289325 
      469   2   -15.99941613 -10.18144663  21.81738562 
      470   1   -14.54492375 -8.72695425  23.27187800 
      471   2   -15.99941613 -7.27246188  24.72637037 
      472   1   -14.54492375 -5.81796950  26.18086275 
      473   2   -15.99941613 -4.36347713  27.63535512 
      474   1   -14.54492375 -2.90898475  29.08984750 
      475   2   -15.99941613 -1.45449238  30.54433987 
      476   1   -14.54492375 -0.00000000  31.99883225 
      477   2   -15.99941613  1.45449237  33.45332462 
      478   1   -11.63593900 -34.90781700 -0.00000000 
      479   2   -13.09043138 -33.45332463  1.45449237 
      480   1   -11.63593900 -31.99883225  2.90898475 
      481   2   -13.09043138 -30.54433988  4.36347712 
      482   1   -11.63593900 -29.08984750  5.81796950 
      483   2   -13.09043138 -27.63535513  7.27246187 
      484   1   -11.63593900 -26.18086275  8.72695425 
      485   2   -13.09043138 -24.72637038  10.18144662 
      486   1   -11.63593900 -23.27187800  11.63593900 
      487   2   -13.09043138 -21.81738563  13.09043137 
      488   1   -11.63593900 -20.36289325  14.54492375 
      489   2   -13.09043138 -18.90840088  15.99941612 
      490   1   -11.63593900 -17.45390850  17.45390850 
      491   2   -13.09043138 -15.99941613  18.90840087 
      492   1   -11.63593900 -14.54492375  20.36289325 
      493   2   -13.09043138 -13.09043138  21.81738562 
      494   1   -11.63593900 -11.63593900  23.27187800 
      495   2   -13.09043138 -10.18144663  24.72637037 
      496   1   -11.63593900 -8.72695425  26.18086275 
      497   2   -13.09043138 -7.27246188  27.63535512 
      498   1   -11.63593900 -5.81796950  29.08984750 
      499   2   -13.09043138 -4.36347713  30.54433987 
      500   1   -11.63593900 -2.90898475  31.99883225 
      501   2   -13.09043138 -1.45449238  33.45332462 
      502   1   -11.63593900 -0.00000000  34.90781700 
      503   1   -8.72695425 -34.90781700  2.90898475 
      504   2   -10.18144663 -33.45332463  4.36347712 
      505   1   -8.72695425 -31.99883225  5.81796950 
      506   2   -10.18144663 -30.54433988  7.27246187 
      507   1   -8.72695425 -29.08984750  8.72695425 
      508   2   -10.18144663 -27.63535513  10.18144662 
      509   1   -8.72695425 -26.18086275  11.63593900 
      510   2   -10.18144663 -24.72637038  13.09043137 
      511   1   -8.72695425 -23.27187800  14.54492375 
      512   2   -10.18144663 -21.81738563  15.99941612 
      513   1   -8.72695425 -20.36289325  17.45390850 
      514   2   -10.18144663 -18.90840088  18.90840087 
      515   1   -8.72695425 -17.45390850  20.36289325 
      516   2   -10.18144663 -15.99941613  21.81738562 
      517   1   -8.72695425 -14.54492375  23.27187800 
      518   2   -10.18144663 -13.09043138  24.72637037 
      519   1   -8.72695425 -11.63593900  26.18086275 
      520   2   -10.18144663 -10.18144663  27.63535512 
      521   1   -8.72695425 -8.72695425  29.08984750 
      522   2   -10.18144663 -7.27246188  30.54433987 
      523   1   -8.72695425 -5.81796950  31.99883225 
      524   2   -10.18144663 -4.36347713  33.45332462 
      525   1   -8.72695425 -2.90898475  34.90781700 
      526   2   -7.27246188 -36.36230938  4.36347712 
      527   1   -5.81796950 -34.90781700  5.81796950 
      528   2   -7.27246188 -33.45332463  7.27246187 
      529   1   -5.81796950 -31.99883225  8.72695425 
      530   2   -7.27246188 -30.54433988  10.18144662 
      531   1   -5.81796950 -29.08984750  11.63593900 
      532   2   -7.27246188 -27.63535513  13.09043137 
      533   1   -5.81796950 -26.18086275  14.54492375 
      534   2   -7.27246188 -24.72637038  15.99941612 
      535   1   -5.81796950 -23.27187800  17.45390850 
      536   2   -7.27246188 -21.81738563  18.90840087 
      537   1   -5.81796950 -20.36289325  20.36289325 
      538   2   -7.27246188 -18.90840088  21.81738562 