LAMMPS configuration data file

  1213 atoms

  4 atom types

  -49.580998  49.580998  xlo xhi
  -49.580998  49.580998  ylo yhi
  -23.087080  23.087080  zlo zhi

 Masses

  1   78.960
  2   112.411
  3   1.000
  4   1.000

 Atoms

        1   1   -28.03709797 -28.03709797  1.52989989 
        2   2   -29.51359787 -26.52609809  3.05548978 
        3   2   -26.52609809 -29.51359787  3.05548978 
        4   2   -29.52809787 -26.54809808 -3.05985978 
        5   1   -28.04669797 -25.06169819 -1.52850989 
        6   2   -29.54919787 -23.57759830 -0.00288404 
        7   1   -28.05429797 -22.09709840  1.52895989 
        8   2   -29.53469787 -20.60249851  3.05716978 
        9   2   -26.54809808 -29.52809787 -3.05985978 
       10   1   -25.06169819 -28.04669797 -1.52850989 
       11   2   -26.55329808 -26.55329808 -0.00379771 
       12   1   -25.06719819 -25.06719819  1.52950989 
       13   2   -26.54519808 -23.56769830  3.05609978 
       14   2   -23.57759830 -29.54919787 -0.00288404 
       15   1   -22.09709840 -28.05429797  1.52895989 
       16   2   -23.56769830 -26.54519808  3.05609978 
       17   2   -20.60249851 -29.53469787  3.05716978 
       18   2   -29.54209787 -20.62299851 -3.06108978 
       19   1   -28.06189797 -19.13859862 -1.52990989 
       20   2   -29.56519787 -17.66159873 -0.00199489 
       21   1   -28.06679798 -16.18679883  1.53039989 
       22   2   -29.54749787 -14.69929894  3.06099978 
       23   2   -26.55439808 -23.58119830 -3.06317978 
       24   1   -25.07349819 -22.10059840 -1.53194989 
       25   2   -26.56759808 -20.62009851 -0.00379360 
       26   1   -25.07929819 -19.14169862  1.52939989 
       27   2   -26.55899808 -17.65429873  3.05978978 
       28   2   -23.58119830 -26.55439808 -3.06317978 
       29   1   -22.10059840 -25.07349819 -1.53194989 
       30   2   -23.58699830 -23.58699830 -0.00473973 
       31   1   -22.10559840 -22.10559840  1.52895989 
       32   2   -23.58079830 -20.61359851  3.05822978 
       33   2   -20.62299851 -29.54209787 -3.06108978 
       34   1   -19.13859862 -28.06189797 -1.52990989 
       35   2   -20.62009851 -26.56759808 -0.00379360 
       36   1   -19.14169862 -25.07929819  1.52939989 
       37   2   -20.61359851 -23.58079830  3.05822978 
       38   2   -17.66159873 -29.56519787 -0.00199489 
       39   1   -16.18679883 -28.06679798  1.53039989 
       40   2   -17.65429873 -26.55899808  3.05978978 
       41   2   -14.69929894 -29.54749787  3.06099978 
       42   2   -29.55249787 -14.71909894 -3.06415978 
       43   1   -28.07259798 -13.23619904 -1.53171989 
       44   2   -29.57489787 -11.76339915 -0.00075776 
       45   1   -28.07469797 -10.29199925  1.53284989 
       46   2   -29.55529787 -8.80936936  3.06590978 
       47   2   -26.56479808 -17.66669872 -3.06513978 
       48   1   -25.08479819 -16.18659883 -1.53312989 
       49   2   -26.57919808 -14.71189894 -0.00227557 
       50   1   -25.08839819 -13.23889904  1.53212989 
       51   2   -26.56819808 -11.75729915  3.06421978 
       52   2   -23.58699830 -20.62169851 -3.06587978 
       53   1   -22.10899840 -19.14329862 -1.53284989 
       54   2   -23.59729830 -17.66489873 -0.00343130 
       55   1   -22.11329840 -16.18949883  1.53098989 
       56   2   -23.59059830 -14.70749894  3.06300978 
       57   2   -20.62169851 -23.58699830 -3.06587978 
       58   1   -19.14329862 -22.10899840 -1.53284989 
       59   2   -20.62699851 -20.62699851 -0.00388258 
       60   1   -19.14719862 -19.14719862  1.52920989 
       61   2   -20.62179851 -17.66149873  3.06099978 
       62   2   -17.66669872 -26.56479808 -3.06513978 
       63   1   -16.18659883 -25.08479819 -1.53312989 
       64   2   -17.66489873 -23.59729830 -0.00343130 
       65   1   -16.18949883 -22.11329840  1.53098989 
       66   2   -17.66149873 -20.62179851  3.06099978 
       67   2   -14.71909894 -29.55249787 -3.06415978 
       68   1   -13.23619904 -28.07259798 -1.53171989 
       69   2   -14.71189894 -26.57919808 -0.00227557 
       70   1   -13.23889904 -25.08839819  1.53212989 
       71   2   -14.70749894 -23.59059830  3.06300978 
       72   2   -11.76339915 -29.57489787 -0.00075776 
       73   1   -10.29199925 -28.07469797  1.53284989 
       74   2   -11.75729915 -26.56819808  3.06421978 
       75   2   -8.80936936 -29.55529787  3.06590978 
       76   2   -29.55839787 -8.82976936 -3.06662978 
       77   1   -28.07889797 -7.34747947 -1.53340989 
       78   2   -29.58099787 -5.87753958 -0.00025650 
       79   1   -28.07939797 -4.40767968  1.53352989 
       80   2   -29.55959787 -2.92654979  3.06819978 
       81   2   -26.57239808 -11.76929915 -3.06666978 
       82   1   -25.09329819 -10.29049926 -1.53344989 
       83   2   -26.58669808 -8.81864936 -0.00060017 
       84   1   -25.09459819 -7.34843947  1.53437989 
       85   2   -26.57409808 -5.87007958  3.06808978 
       86   2   -23.59499830 -14.71489894 -3.06761978 
       87   1   -22.11789840 -13.23799905 -1.53332989 
       88   2   -23.60609830 -11.76409915 -0.00118736 
       89   1   -22.12019840 -10.29229926  1.53389989 
       90   2   -23.59839830 -8.81492936  3.06705978 
       91   2   -20.62619851 -17.66659872 -3.06759978 
       92   1   -19.14949862 -16.18989883 -1.53350989 
       93   2   -20.63389851 -14.71399894 -0.00201146 
       94   1   -19.15199862 -13.23969904  1.53240989 
       95   2   -20.62909851 -11.76149915  3.06564978 
       96   2   -17.66659872 -20.62619851 -3.06759978 
       97   1   -16.18989883 -19.14949862 -1.53350989 
       98   2   -17.66899872 -17.66899872 -0.00227922 
       99   1   -16.19179883 -16.19179883  1.53280989 
      100   2   -17.66649873 -14.71099894  3.06518978 
      101   2   -14.71489894 -23.59499830 -3.06761978 
      102   1   -13.23799905 -22.11789840 -1.53332989 
      103   2   -14.71399894 -20.63389851 -0.00201146 
      104   1   -13.23969904 -19.15199862  1.53240989 
      105   2   -14.71099894 -17.66649873  3.06518978 
      106   2   -11.76929915 -26.57239808 -3.06666978 
      107   1   -10.29049926 -25.09329819 -1.53344989 
      108   2   -11.76409915 -23.60609830 -0.00118736 
      109   1   -10.29229926 -22.12019840  1.53389989 
      110   2   -11.76149915 -20.62909851  3.06564978 
      111   2   -8.82976936 -29.55839787 -3.06662978 
      112   1   -7.34747947 -28.07889797 -1.53340989 
      113   2   -8.81864936 -26.58669808 -0.00060017 
      114   1   -7.34843947 -25.09459819  1.53437989 
      115   2   -8.81492936 -23.59839830  3.06705978 
      116   2   -5.87753958 -29.58099787 -0.00025650 
      117   1   -4.40767968 -28.07939797  1.53352989 
      118   2   -5.87007958 -26.57409808  3.06808978 
      119   2   -2.92654979 -29.55959787  3.06819978 
      120   2   -29.56049787 -2.94924979 -3.06893978 
      121   1   -28.07969797 -1.46842989 -1.53476989 
      122   2   -29.58089787 -0.00000000 -0.00000000 
      123   1   -28.07969797  1.46842989  1.53476989 
      124   2   -29.56049787  2.94924979  3.06893978 
      125   2   -26.57589808 -5.88421958 -3.06895978 
      126   1   -25.09609819 -4.40687968 -1.53472989 
      127   2   -26.58849808 -2.93718979  0.00016300 
      128   1   -25.09539819 -1.46874990  1.53571989 
      129   2   -26.57499808  0.00740252  3.07079978 
      130   2   -23.60069830 -8.82369937 -3.06889978 
      131   1   -22.12369840 -7.34757947 -1.53480989 
      132   2   -23.61049829 -5.87704958  0.00010604 
      133   1   -22.12309840 -4.40759968  1.53535989 
      134   2   -23.60039830 -2.93297979  3.07122978 
      135   2   -20.63199851 -11.76749915 -3.06842978 
      136   1   -19.15609862 -10.29159925 -1.53392989 
      137   2   -20.64029851 -8.81887937 -0.00052544 
      138   1   -19.15629862 -7.34819947  1.53440989 
      139   2   -20.63349851 -5.87422957  3.06983978 
      140   2   -17.67049872 -14.71569894 -3.06937978 
      141   1   -16.19469883 -13.24059904 -1.53498989 
      142   2   -17.67409872 -11.76489915 -0.00126131 
      143   1   -16.19509883 -10.29169926  1.53401989 
      144   2   -17.67149873 -8.81704936  3.06851978 
      145   2   -14.71569894 -17.67049872 -3.06937978 
      146   1   -13.24059904 -16.19469883 -1.53498989 
      147   2   -14.71639894 -14.71639894 -0.00155939 
      148   1   -13.24069905 -13.24069905  1.53358989 
      149   2   -14.71459894 -11.76319915  3.06775978 
      150   2   -11.76749915 -20.63199851 -3.06842978 
      151   1   -10.29159925 -19.15609862 -1.53392989 
      152   2   -11.76489915 -17.67409872 -0.00126131 
      153   1   -10.29169926 -16.19509883  1.53401989 
      154   2   -11.76319915 -14.71459894  3.06775978 
      155   2   -8.82369937 -23.60069830 -3.06889978 
      156   1   -7.34757947 -22.12369840 -1.53480989 
      157   2   -8.81887937 -20.64029851 -0.00052544 
      158   1   -7.34819947 -19.15629862  1.53440989 
      159   2   -8.81704936 -17.67149873  3.06851978 
      160   2   -5.88421958 -26.57589808 -3.06895978 
      161   1   -4.40687968 -25.09609819 -1.53472989 
      162   2   -5.87704958 -23.61049829  0.00010604 
      163   1   -4.40759968 -22.12309840  1.53535989 
      164   2   -5.87422957 -20.63349851  3.06983978 
      165   2   -2.94924979 -29.56049787 -3.06893978 
      166   1   -1.46842989 -28.07969797 -1.53476989 
      167   2   -2.93718979 -26.58849808  0.00016300 
      168   1   -1.46874990 -25.09539819  1.53571989 
      169   2   -2.93297979 -23.60039830  3.07122978 
      170   2   -0.00000000 -29.58089787 -0.00000000 
      171   1    1.46842989 -28.07969797  1.53476989 
      172   2    0.00740252 -26.57499808  3.07079978 
      173   2    2.94924979 -29.56049787  3.06893978 
      174   2   -29.55959787  2.92654979 -3.06819978 
      175   1   -28.07939797  4.40767968 -1.53352989 
      176   2   -29.58099787  5.87753958  0.00025650 
      177   1   -28.07889797  7.34747947  1.53340989 
      178   2   -29.55839787  8.82976936  3.06662978 
      179   2   -26.57499808 -0.00740252 -3.07079978 
      180   1   -25.09539819  1.46874990 -1.53571989 
      181   2   -26.58849808  2.93718979 -0.00016300 
      182   1   -25.09609819  4.40687968  1.53472989 
      183   2   -26.57589808  5.88421958  3.06895978 
      184   2   -23.60159830 -2.94270979 -3.07110978 
      185   1   -22.12379840 -1.46816989 -1.53621989 
      186   2   -23.61039830 -0.00000000 -0.00000000 
      187   1   -22.12379840  1.46816989  1.53621989 
      188   2   -23.60159830  2.94270979  3.07110978 
      189   2   -20.63569851 -5.88105957 -3.07076978 
      190   1   -19.15859861 -4.40765968 -1.53551989 
      191   2   -20.64169851 -2.93739979 -0.00003657 
      192   1   -19.15849862 -1.46851989  1.53659989 
      193   2   -20.63519851  0.00355857  3.07376978 
      194   2   -17.67389872 -8.82270936 -3.07067978 
      195   1   -16.19769883 -7.34856947 -1.53698989 
      196   2   -17.67699872 -5.87745958 -0.00070985 
      197   1   -16.19809883 -4.40654968  1.53628989 
      198   2   -17.67449873 -2.93519979  3.07390978 
      199   2   -14.71769894 -11.76829915 -3.07173978 
      200   1   -13.24329904 -10.29339926 -1.53752989 
      201   2   -14.71899894 -8.81916937 -0.00146331 
      202   1   -13.24339905 -7.34672947  1.53579989 
      203   2   -14.71789894 -5.87451957  3.07306978 
      204   2   -11.76829915 -14.71769894 -3.07173978 
      205   1   -10.29339926 -13.24329904 -1.53752989 
      206   2   -11.76639915 -11.76639915 -0.00197006 
      207   1   -10.29259926 -10.29259926  1.53542989 
      208   2   -11.76669915 -8.81851936  3.07119978 
      209   2   -8.82270936 -17.67389872 -3.07067978 
      210   1   -7.34856947 -16.19769883 -1.53698989 
      211   2   -8.81916937 -14.71899894 -0.00146331 
      212   1   -7.34672947 -13.24339905  1.53579989 
      213   2   -8.81851936 -11.76669915  3.07119978 
      214   2   -5.88105957 -20.63569851 -3.07076978 
      215   1   -4.40765968 -19.15859861 -1.53551989 
      216   2   -5.87745958 -17.67699872 -0.00070985 
      217   1   -4.40654968 -16.19809883  1.53628989 
      218   2   -5.87451957 -14.71789894  3.07306978 
      219   2   -2.94270979 -23.60159830 -3.07110978 
      220   1   -1.46816989 -22.12379840 -1.53621989 
      221   2   -2.93739979 -20.64169851 -0.00003657 
      222   1   -1.46851989 -19.15849862  1.53659989 
      223   2   -2.93519979 -17.67449873  3.07390978 
      224   2   -0.00740252 -26.57499808 -3.07079978 
      225   1    1.46874990 -25.09539819 -1.53571989 
      226   2   -0.00000000 -23.61039830 -0.00000000 
      227   1    1.46816989 -22.12379840  1.53621989 
      228   2    0.00355857 -20.63519851  3.07376978 
      229   2    2.92654979 -29.55959787 -3.06819978 
      230   1    4.40767968 -28.07939797 -1.53352989 
      231   2    2.93718979 -26.58849808 -0.00016300 
      232   1    4.40687968 -25.09609819  1.53472989 
      233   2    2.94270979 -23.60159830  3.07110978 
      234   2    5.87753958 -29.58099787  0.00025650 
      235   1    7.34747947 -28.07889797  1.53340989 
      236   2    5.88421958 -26.57589808  3.06895978 
      237   2    8.82976936 -29.55839787  3.06662978 
      238   2   -29.55529787  8.80936936 -3.06590978 
      239   1   -28.07469797  10.29199925 -1.53284989 
      240   2   -29.57489787  11.76339915  0.00075776 
      241   1   -28.07259798  13.23619904  1.53171989 
      242   2   -29.55249787  14.71909894  3.06415978 
      243   2   -26.57409808  5.87007958 -3.06808978 
      244   1   -25.09459819  7.34843947 -1.53437989 
      245   2   -26.58669808  8.81864936  0.00060017 
      246   1   -25.09329819  10.29049926  1.53344989 
      247   2   -26.57239808  11.76929915  3.06666978 
      248   2   -23.60039830  2.93297979 -3.07122978 
      249   1   -22.12309840  4.40759968 -1.53535989 
      250   2   -23.61049829  5.87704958 -0.00010604 
      251   1   -22.12369840  7.34757947  1.53480989 
      252   2   -23.60069830  8.82369937  3.06889978 
      253   2   -20.63519851 -0.00355857 -3.07376978 
      254   1   -19.15849862  1.46851989 -1.53659989 
      255   2   -20.64169851  2.93739979  0.00003656 
      256   1   -19.15859861  4.40765968  1.53551989 
      257   2   -20.63569851  5.88105957  3.07076978 
      258   2   -17.67639872 -2.94079979 -3.07474978 
      259   1   -16.20019883 -1.46835989 -1.53864989 
      260   2   -17.67899872 -0.00000000 -0.00000000 
      261   1   -16.20019883  1.46835989  1.53864989 
      262   2   -17.67639872  2.94079979  3.07474978 
      263   2   -14.71979894 -5.87980957 -3.07538978 
      264   1   -13.24559904 -4.40664968 -1.53933989 
      265   2   -14.72179894 -2.93634979 -0.00082830 
      266   1   -13.24579904 -1.46722989  1.53917989 
      267   2   -14.72069894  0.00234078  3.07850978 
      268   2   -11.76859915 -8.82166936 -3.07537978 
      269   1   -10.29469925 -7.34817947 -1.54039989 
      270   2   -11.76849915 -5.87624958 -0.00196670 
      271   1   -10.29509926 -4.40537968  1.53764989 
      272   2   -11.76899915 -2.93565979  3.07742978 
      273   2   -8.82166936 -11.76859915 -3.07537978 
      274   1   -7.34817947 -10.29469925 -1.54039989 
      275   2   -8.81986936 -8.81986936 -0.00264966 
      276   1   -7.34837947 -7.34837947  1.53776989 
      277   2   -8.82111936 -5.87625958  3.07576978 
      278   2   -5.87980957 -14.71979894 -3.07538978 
      279   1   -4.40664968 -13.24559904 -1.53933989 
      280   2   -5.87624958 -11.76849915 -0.00196670 
      281   1   -4.40537968 -10.29509926  1.53764989 
      282   2   -5.87625958 -8.82111936  3.07576978 
      283   2   -2.94079979 -17.67639872 -3.07474978 
      284   1   -1.46835989 -16.20019883 -1.53864989 
      285   2   -2.93634979 -14.72179894 -0.00082830 
      286   1   -1.46722989 -13.24579904  1.53917989 
      287   2   -2.93565979 -11.76899915  3.07742978 
      288   2   -0.00355857 -20.63519851 -3.07376978 
      289   1    1.46851989 -19.15849862 -1.53659989 
      290   2   -0.00000000 -17.67899872 -0.00000000 
      291   1    1.46835989 -16.20019883  1.53864989 
      292   2    0.00234078 -14.72069894  3.07850978 
      293   2    2.93297979 -23.60039830 -3.07122978 
      294   1    4.40759968 -22.12309840 -1.53535989 
      295   2    2.93739979 -20.64169851  0.00003656 
      296   1    4.40765968 -19.15859861  1.53551989 
      297   2    2.94079979 -17.67639872  3.07474978 
      298   2    5.87007958 -26.57409808 -3.06808978 
      299   1    7.34843947 -25.09459819 -1.53437989 
      300   2    5.87704958 -23.61049829 -0.00010604 
      301   1    7.34757947 -22.12369840  1.53480989 
      302   2    5.88105957 -20.63569851  3.07076978 
      303   2    8.80936936 -29.55529787 -3.06590978 
      304   1    10.29199925 -28.07469797 -1.53284989 
      305   2    8.81864936 -26.58669808  0.00060017 
      306   1    10.29049926 -25.09329819  1.53344989 
      307   2    8.82369937 -23.60069830  3.06889978 
      308   2    11.76339915 -29.57489787  0.00075776 
      309   1    13.23619904 -28.07259798  1.53171989 
      310   2    11.76929915 -26.57239808  3.06666978 
      311   2    14.71909894 -29.55249787  3.06415978 
      312   2   -29.54749787  14.69929894 -3.06099978 
      313   1   -28.06679798  16.18679883 -1.53039989 
      314   2   -29.56519787  17.66159873  0.00199489 
      315   1   -28.06189797  19.13859862  1.52990989 
      316   2   -29.54209787  20.62299851  3.06108978 
      317   2   -26.56819808  11.75729915 -3.06421978 
      318   1   -25.08839819  13.23889904 -1.53212989 
      319   2   -26.57919808  14.71189894  0.00227556 
      320   1   -25.08479819  16.18659883  1.53312989 
      321   2   -26.56479808  17.66669872  3.06513978 
      322   2   -23.59839830  8.81492936 -3.06705978 
      323   1   -22.12019840  10.29229926 -1.53389989 
      324   2   -23.60609830  11.76409915  0.00118736 
      325   1   -22.11789840  13.23799905  1.53332989 
      326   2   -23.59499830  14.71489894  3.06761978 
      327   2   -20.63349851  5.87422957 -3.06983978 
      328   1   -19.15629862  7.34819947 -1.53440989 
      329   2   -20.64029851  8.81887937  0.00052544 
      330   1   -19.15609862  10.29159925  1.53392989 
      331   2   -20.63199851  11.76749915  3.06842978 
      332   2   -17.67449873  2.93519979 -3.07390978 
      333   1   -16.19809883  4.40654968 -1.53628989 
      334   2   -17.67699872  5.87745958  0.00070985 
      335   1   -16.19769883  7.34856947  1.53698989 
      336   2   -17.67389872  8.82270936  3.07067978 
      337   2   -14.72069894 -0.00234078 -3.07850978 
      338   1   -13.24579904  1.46722989 -1.53917989 
      339   2   -14.72179894  2.93634979  0.00082829 
      340   1   -13.24559904  4.40664968  1.53933989 
      341   2   -14.71979894  5.87980957  3.07538978 
      342   2   -11.77009915 -2.93832979 -3.07974978 
      343   1   -10.29619925 -1.46837990 -1.54125989 
      344   2   -11.76969915 -0.00000000 -0.00000000 
      345   1   -10.29619925  1.46837990  1.54125989 
      346   2   -11.77009915  2.93832979  3.07974978 
      347   2   -8.82233936 -5.87807958 -3.08070978 
      348   1   -7.35013947 -4.40702968 -1.54211989 
      349   2   -8.82171936 -2.93635979 -0.00155320 
      350   1   -7.35019947 -1.46776989  1.54128989 
      351   2   -8.82265936  0.00089475  3.08253978 
      352   2   -5.87807958 -8.82233936 -3.08070978 
      353   1   -4.40702968 -7.35013947 -1.54211989 
      354   2   -5.87775958 -5.87775958 -0.00217615 
      355   1   -4.40725968 -4.40725968  1.54044989 
      356   2   -5.87816957 -2.93691979  3.08216978 
      357   2   -2.93832979 -11.77009915 -3.07974978 
      358   1   -1.46837990 -10.29619925 -1.54125989 
      359   2   -2.93635979 -8.82171936 -0.00155320 
      360   1   -1.46776989 -7.35019947  1.54128989 
      361   2   -2.93691979 -5.87816957  3.08216978 
      362   2   -0.00234078 -14.72069894 -3.07850978 
      363   1    1.46722989 -13.24579904 -1.53917989 
      364   2   -0.00000000 -11.76969915 -0.00000000 
      365   1    1.46837990 -10.29619925  1.54125989 
      366   2    0.00089475 -8.82265936  3.08253978 
      367   2    2.93519979 -17.67449873 -3.07390978 
      368   1    4.40654968 -16.19809883 -1.53628989 
      369   2    2.93634979 -14.72179894  0.00082829 
      370   1    4.40664968 -13.24559904  1.53933989 
      371   2    2.93832979 -11.77009915  3.07974978 
      372   2    5.87422957 -20.63349851 -3.06983978 
      373   1    7.34819947 -19.15629862 -1.53440989 
      374   2    5.87745958 -17.67699872  0.00070985 
      375   1    7.34856947 -16.19769883  1.53698989 
      376   2    5.87980957 -14.71979894  3.07538978 
      377   2    8.81492936 -23.59839830 -3.06705978 
      378   1    10.29229926 -22.12019840 -1.53389989 
      379   2    8.81887937 -20.64029851  0.00052544 
      380   1    10.29159925 -19.15609862  1.53392989 
      381   2    8.82270936 -17.67389872  3.07067978 
      382   2    11.75729915 -26.56819808 -3.06421978 
      383   1    13.23889904 -25.08839819 -1.53212989 
      384   2    11.76409915 -23.60609830  0.00118736 
      385   1    13.23799905 -22.11789840  1.53332989 
      386   2    11.76749915 -20.63199851  3.06842978 
      387   2    14.69929894 -29.54749787 -3.06099978 
      388   1    16.18679883 -28.06679798 -1.53039989 
      389   2    14.71189894 -26.57919808  0.00227556 
      390   1    16.18659883 -25.08479819  1.53312989 
      391   2    14.71489894 -23.59499830  3.06761978 
      392   2    17.66159873 -29.56519787  0.00199489 
      393   1    19.13859862 -28.06189797  1.52990989 
      394   2    17.66669872 -26.56479808  3.06513978 
      395   2    20.62299851 -29.54209787  3.06108978 
      396   2   -29.53469787  20.60249851 -3.05716978 
      397   1   -28.05429797  22.09709840 -1.52895989 
      398   2   -29.54919787  23.57759830  0.00288403 
      399   1   -28.04669797  25.06169819  1.52850989 
      400   2   -29.52809787  26.54809808  3.05985978 
      401   2   -26.55899808  17.65429873 -3.05978978 
      402   1   -25.07929819  19.14169862 -1.52939989 
      403   2   -26.56759808  20.62009851  0.00379360 
      404   1   -25.07349819  22.10059840  1.53194989 
      405   2   -26.55439808  23.58119830  3.06317978 
      406   2   -23.59059830  14.70749894 -3.06300978 
      407   1   -22.11329840  16.18949883 -1.53098989 
      408   2   -23.59729830  17.66489873  0.00343130 
      409   1   -22.10899840  19.14329862  1.53284989 
      410   2   -23.58699830  20.62169851  3.06587978 
      411   2   -20.62909851  11.76149915 -3.06564978 
      412   1   -19.15199862  13.23969904 -1.53240989 
      413   2   -20.63389851  14.71399894  0.00201146 
      414   1   -19.14949862  16.18989883  1.53350989 
      415   2   -20.62619851  17.66659872  3.06759978 
      416   2   -17.67149873  8.81704936 -3.06851978 
      417   1   -16.19509883  10.29169926 -1.53401989 
      418   2   -17.67409872  11.76489915  0.00126130 
      419   1   -16.19469883  13.24059904  1.53498989 
      420   2   -17.67049872  14.71569894  3.06937978 
      421   2   -14.71789894  5.87451957 -3.07306978 
      422   1   -13.24339905  7.34672947 -1.53579989 
      423   2   -14.71899894  8.81916937  0.00146331 
      424   1   -13.24329904  10.29339926  1.53752989 
      425   2   -14.71769894  11.76829915  3.07173978 
      426   2   -11.76899915  2.93565979 -3.07742978 
      427   1   -10.29509926  4.40537968 -1.53764989 
      428   2   -11.76849915  5.87624958  0.00196670 
      429   1   -10.29469925  7.34817947  1.54039989 
      430   2   -11.76859915  8.82166936  3.07537978 
      431   2   -8.82265936 -0.00089475 -3.08253978 
      432   1   -7.35019947  1.46776989 -1.54128989 
      433   2   -8.82171936  2.93635979  0.00155320 
      434   1   -7.35013947  4.40702968  1.54211989 
      435   2   -8.82233936  5.87807958  3.08070978 
      436   2   -5.87938958 -2.93836979 -3.08471978 
      437   1   -4.40842968 -1.46878989 -1.54282989 
      438   2   -5.87900957 -0.00000000 -0.00000000 
      439   1   -4.40842968  1.46878989  1.54282989 
      440   2   -5.87938958  2.93836979  3.08471978 
      441   2   -2.93836979 -5.87938958 -3.08471978 
      442   1   -1.46878989 -4.40842968 -1.54282989 
      443   2   -2.93760979 -2.93760979 -0.00055162 
      444   1   -1.46859990 -1.46859990  1.54389989 
      445   2   -2.93850979  0.00060633  3.08707977 
      446   2   -0.00089475 -8.82265936 -3.08253978 
      447   1    1.46776989 -7.35019947 -1.54128989 
      448   2   -0.00000000 -5.87900957 -0.00000000 
      449   1    1.46878989 -4.40842968  1.54282989 
      450   2    0.00060633 -2.93850979  3.08707977 
      451   2    2.93565979 -11.76899915 -3.07742978 
      452   1    4.40537968 -10.29509926 -1.53764989 
      453   2    2.93635979 -8.82171936  0.00155320 
      454   1    4.40702968 -7.35013947  1.54211989 
      455   2    2.93836979 -5.87938958  3.08471978 
      456   2    5.87451957 -14.71789894 -3.07306978 
      457   1    7.34672947 -13.24339905 -1.53579989 
      458   2    5.87624958 -11.76849915  0.00196670 
      459   1    7.34817947 -10.29469925  1.54039989 
      460   2    5.87807958 -8.82233936  3.08070978 
      461   2    8.81704936 -17.67149873 -3.06851978 
      462   1    10.29169926 -16.19509883 -1.53401989 
      463   2    8.81916937 -14.71899894  0.00146331 
      464   1    10.29339926 -13.24329904  1.53752989 
      465   2    8.82166936 -11.76859915  3.07537978 
      466   2    11.76149915 -20.62909851 -3.06564978 
      467   1    13.23969904 -19.15199862 -1.53240989 
      468   2    11.76489915 -17.67409872  0.00126130 
      469   1    13.24059904 -16.19469883  1.53498989 
      470   2    11.76829915 -14.71769894  3.07173978 
      471   2    14.70749894 -23.59059830 -3.06300978 
      472   1    16.18949883 -22.11329840 -1.53098989 
      473   2    14.71399894 -20.63389851  0.00201146 
      474   1    16.18989883 -19.14949862  1.53350989 
      475   2    14.71569894 -17.67049872  3.06937978 
      476   2    17.65429873 -26.55899808 -3.05978978 
      477   1    19.14169862 -25.07929819 -1.52939989 
      478   2    17.66489873 -23.59729830  0.00343130 
      479   1    19.14329862 -22.10899840  1.53284989 
      480   2    17.66659872 -20.62619851  3.06759978 
      481   2    20.60249851 -29.53469787 -3.05716978 
      482   1    22.09709840 -28.05429797 -1.52895989 
      483   2    20.62009851 -26.56759808  0.00379360 
      484   1    22.10059840 -25.07349819  1.53194989 
      485   2    20.62169851 -23.58699830  3.06587978 
      486   2    23.57759830 -29.54919787  0.00288403 
      487   1    25.06169819 -28.04669797  1.52850989 
      488   2    23.58119830 -26.55439808  3.06317978 
      489   2    26.54809808 -29.52809787  3.05985978 
      490   2   -29.51359787  26.52609809 -3.05548978 
      491   1   -28.03709797  28.03709797 -1.52989989 
      492   2   -26.54519808  23.56769830 -3.05609978 
      493   1   -25.06719819  25.06719819 -1.52950989 
      494   2   -26.55329808  26.55329808  0.00379770 
      495   1   -25.06169819  28.04669797  1.52850989 
      496   2   -26.54809808  29.52809787  3.05985978 
      497   2   -23.58079830  20.61359851 -3.05822978 
      498   1   -22.10559840  22.10559840 -1.52895989 
      499   2   -23.58699830  23.58699830  0.00473973 
      500   1   -22.10059840  25.07349819  1.53194989 
      501   2   -23.58119830  26.55439808  3.06317978 
      502   2   -20.62179851  17.66149873 -3.06099978 
      503   1   -19.14719862  19.14719862 -1.52920989 
      504   2   -20.62699851  20.62699851  0.00388258 
      505   1   -19.14329862  22.10899840  1.53284989 
      506   2   -20.62169851  23.58699830  3.06587978 
      507   2   -17.66649873  14.71099894 -3.06518978 
      508   1   -16.19179883  16.19179883 -1.53280989 
      509   2   -17.66899872  17.66899872  0.00227922 
      510   1   -16.18989883  19.14949862  1.53350989 
      511   2   -17.66659872  20.62619851  3.06759978 
      512   2   -14.71459894  11.76319915 -3.06775978 
      513   1   -13.24069905  13.24069905 -1.53358989 
      514   2   -14.71639894  14.71639894  0.00155938 
      515   1   -13.24059904  16.19469883  1.53498989 
      516   2   -14.71569894  17.67049872  3.06937978 
      517   2   -11.76669915  8.81851936 -3.07119978 
      518   1   -10.29259926  10.29259926 -1.53542989 
      519   2   -11.76639915  11.76639915  0.00197006 
      520   1   -10.29339926  13.24329904  1.53752989 
      521   2   -11.76829915  14.71769894  3.07173978 
      522   2   -8.82111936  5.87625958 -3.07576978 
      523   1   -7.34837947  7.34837947 -1.53776989 
      524   2   -8.81986936  8.81986936  0.00264966 
      525   1   -7.34817947  10.29469925  1.54039989 
      526   2   -8.82166936  11.76859915  3.07537978 
      527   2   -5.87816957  2.93691979 -3.08216978 
      528   1   -4.40725968  4.40725968 -1.54044989 
      529   2   -5.87775958  5.87775958  0.00217615 
      530   1   -4.40702968  7.35013947  1.54211989 
      531   2   -5.87807958  8.82233936  3.08070978 
      532   2   -2.93850979 -0.00060633 -3.08707977 
      533   1   -1.46859990  1.46859990 -1.54389989 
      534   2   -2.93760979  2.93760979  0.00055162 
      535   1   -1.46878989  4.40842968  1.54282989 
      536   2   -2.93836979  5.87938958  3.08471978 
      537   2   -0.00060633 -2.93850979 -3.08707977 
      538   1    1.46859990 -1.46859990 -1.54389989 
      539   2   -0.00000000 -0.00000000 -0.00000000 
      540   1    1.46859990  1.46859990  1.54389989 
      541   2   -0.00060633  2.93850979  3.08707977 
      542   2    2.93691979 -5.87816957 -3.08216978 
      543   1    4.40725968 -4.40725968 -1.54044989 
      544   2    2.93760979 -2.93760979  0.00055162 
      545   1    4.40842968 -1.46878989  1.54282989 
      546   2    2.93850979 -0.00060633  3.08707977 
      547   2    5.87625958 -8.82111936 -3.07576978 