LAMMPS configuration data file

  3134 atoms

  5 atom types

  -49.638798  49.638798  xlo xhi
  -49.638798  49.638798  ylo yhi
  -29.025289  29.025289  zlo zhi

 Masses

  1   112.411
  2   78.960
  3   32.065
  4   1.000
  5   1.000

 Atoms

        1   1   -29.59999786 -26.61059808  3.05540978 
        2   2   -28.09919797 -25.12309818  4.58312967 
        3   1   -29.55589787 -23.61389829  6.12003956 
        4   3   -28.05749797 -22.13709840  7.55598945 
        5   1   -26.61059808 -29.59999786  3.05540978 
        6   2   -25.12309818 -28.09919797  4.58312967 
        7   1   -26.58239808 -26.58239808  6.11491956 
        8   3   -25.09529819 -25.09529819  7.55086946 
        9   1   -26.54989808 -23.59419830  8.99456935 
       10   1   -23.61389829 -29.55589787  6.12003956 
       11   3   -22.13709840 -28.05749797  7.55598945 
       12   1   -23.59419830 -26.54989808  8.99456935 
       13   2   -28.09799797 -28.09799797 -4.56641967 
       14   1   -29.61549786 -26.63139808 -3.03963978 
       15   1   -29.61849786 -20.67549851  3.05142978 
       16   2   -28.11149797 -19.19969861  4.58136967 
       17   1   -29.57009786 -17.70079872  6.12079956 
       18   3   -28.06589797 -16.23229883  7.55795945 
       19   1   -26.63139808 -29.61549786 -3.03963978 
       20   1   -26.62519808 -23.64509829  3.04840978 
       21   2   -25.13169819 -22.16079840  4.57800967 
       22   1   -26.59579808 -20.66089851  6.11258956 
       23   3   -25.10279819 -19.18599862  7.55110946 
       24   1   -26.55939808 -17.69359872  8.99612935 
       25   1   -23.64509829 -26.62519808  3.04840978 
       26   2   -22.16079840 -25.13169819  4.57800967 
       27   1   -23.62509829 -23.62509829  6.10950956 
       28   3   -22.14199840 -22.14199840  7.54850945 
       29   1   -23.60239829 -20.64709851  8.98894935 
       30   1   -20.67549851 -29.61849786  3.05142978 
       31   2   -19.19969861 -28.11149797  4.58136967 
       32   1   -20.66089851 -26.59579808  6.11258956 
       33   3   -19.18599862 -25.10279819  7.55110946 
       34   1   -20.64709851 -23.60239829  8.98894935 
       35   1   -17.70079872 -29.57009786  6.12079956 
       36   3   -16.23229883 -28.06589797  7.55795945 
       37   1   -17.69359872 -26.55939808  8.99612935 
       38   3   -28.06059798 -25.10099819 -7.54383945 
       39   1   -29.57409787 -23.64499829 -6.10850956 
       40   2   -28.10689797 -22.15929840 -4.57178967 
       41   1   -29.62569786 -20.69359851 -3.04641978 
       42   1   -29.63109786 -14.75789894  3.05203978 
       43   2   -28.11959797 -13.28889904  4.58307967 
       44   1   -29.57789787 -11.79459915  6.12456956 
       45   3   -28.07019797 -10.33019926  7.56233945 
       46   3   -25.10099819 -28.06059798 -7.54383945 
       47   1   -26.60549808 -26.60549808 -6.10441956 
       48   2   -25.12839819 -25.12839819 -4.57032967 
       49   1   -26.63509808 -23.65889829 -3.04460978 
       50   1   -26.63859808 -17.71789872  3.04941978 
       51   2   -25.14029818 -16.24389883  4.58140967 
       52   1   -26.60599808 -14.75109894  6.11709956 
       53   3   -25.10839819 -13.28229904  7.55616945 
       54   1   -26.56639808 -11.79449915  9.00173935 
       55   1   -23.64499829 -29.57409787 -6.10850956 
       56   2   -22.15929840 -28.10689797 -4.57178967 
       57   1   -23.65889829 -26.63509808 -3.04460978 
       58   1   -23.65559829 -20.68209851  3.04794978 
       59   2   -22.16709840 -19.20219861  4.58004967 
       60   1   -23.63469829 -17.70859872  6.11482956 
       61   3   -22.14679840 -16.23409883  7.55488945 
       62   1   -23.60979830 -14.74649894  8.99590935 
       63   1   -20.69359851 -29.62569786 -3.04641978 
       64   1   -20.68209851 -23.65559829  3.04794978 
       65   2   -19.20219861 -22.16709840  4.58004967 
       66   1   -20.66909851 -20.66909851  6.11344956 
       67   3   -19.18879861 -19.18879861  7.55459945 
       68   1   -20.65299851 -17.69859872  8.99455935 
       69   1   -17.71789872 -26.63859808  3.04941978 
       70   2   -16.24389883 -25.14029818  4.58140967 
       71   1   -17.70859872 -23.63469829  6.11482956 
       72   3   -16.23409883 -22.14679840  7.55488945 
       73   1   -17.69859872 -20.65299851  8.99455935 
       74   1   -14.75789894 -29.63109786  3.05203978 
       75   2   -13.28889904 -28.11959797  4.58307967 
       76   1   -14.75109894 -26.60599808  6.11709956 
       77   3   -13.28229904 -25.10839819  7.55616945 
       78   1   -14.74649894 -23.60979830  8.99590935 
       79   1   -11.79459915 -29.57789787  6.12456956 
       80   3   -10.33019926 -28.07019797  7.56233945 
       81   1   -11.79449915 -26.56639808  9.00173935 
       82   3   -28.06519797 -19.18839862 -7.55148946 
       83   1   -29.57839786 -17.72839872 -6.11924956 
       84   2   -28.11449797 -16.23939883 -4.58184967 
       85   1   -29.63329786 -14.77489893 -3.05518978 
       86   1   -29.63519786 -8.84970936  3.05487978 
       87   2   -28.12099797 -7.38425947  4.58692967 
       88   1   -29.57859787 -5.89167957  6.12988956 
       89   3   -28.06929797 -4.42894968  7.56692945 
       90   1   -26.56959808 -23.61889829 -8.98739935 
       91   3   -25.10309819 -22.14319840 -7.54487946 
       92   1   -26.60739808 -20.68169851 -6.11047956 
       93   2   -25.13469819 -19.19819861 -4.57908967 
       94   1   -26.64199808 -17.73069872 -3.05232978 
       95   1   -26.64599808 -11.80619915  3.05217978 
       96   2   -25.14399819 -10.33689925  4.58466967 
       97   1   -26.60959808 -8.84790936  6.12197956 
       98   3   -25.11019819 -7.38057947  7.56032945 
       99   1   -26.56699808 -5.89448957  9.00750935 
      100   1   -23.61889829 -26.56959808 -8.98739935 
      101   3   -22.14319840 -25.10309819 -7.54487946 
      102   1   -23.64059830 -23.64059830 -6.10833956 
      103   2   -22.16169840 -22.16169840 -4.57788967 
      104   1   -23.66129829 -20.69089851 -3.05147978 
      105   1   -23.66489829 -14.76359893  3.05216978 
      106   2   -22.17209840 -13.29049904  4.58480967 
      107   1   -23.64109829 -11.80259915  6.11995956 
      108   3   -22.15009840 -10.33149925  7.55963945 
      109   1   -23.61379830 -8.84680936  9.00122935 
      110   3   -19.18839862 -28.06519797 -7.55148946 
      111   1   -20.68169851 -26.60739808 -6.11047956 
      112   2   -19.19819861 -25.13469819 -4.57908967 
      113   1   -20.69089851 -23.66129829 -3.05147978 
      114   1   -20.69049851 -17.72429872  3.05079978 
      115   2   -19.20659861 -16.24649883  4.58517967 
      116   1   -20.67599851 -14.75769893  6.12058956 
      117   3   -19.19169862 -13.28309904  7.56105945 
      118   1   -20.65849851 -11.79849915  9.00097935 
      119   1   -17.72839872 -29.57839786 -6.11924956 
      120   2   -16.23939883 -28.11449797 -4.58184967 
      121   1   -17.73069872 -26.64199808 -3.05232978 
      122   1   -17.72429872 -20.69049851  3.05079978 
      123   2   -16.24649883 -19.20659861  4.58517967 
      124   1   -17.71459872 -17.71459872  6.12139956 
      125   3   -16.23559883 -16.23559883  7.56166946 
      126   1   -17.70299872 -14.74979894  9.00222935 
      127   1   -14.77489893 -29.63329786 -3.05518978 
      128   1   -14.76359893 -23.66489829  3.05216978 
      129   2   -13.29049904 -22.17209840  4.58480967 
      130   1   -14.75769893 -20.67599851  6.12058956 
      131   3   -13.28309904 -19.19169862  7.56105945 
      132   1   -14.74979894 -17.70299872  9.00222935 
      133   1   -11.80619915 -26.64599808  3.05217978 
      134   2   -10.33689925 -25.14399819  4.58466967 
      135   1   -11.80259915 -23.64109829  6.11995956 
      136   3   -10.33149925 -22.15009840  7.55963945 
      137   1   -11.79849915 -20.65849851  9.00097935 
      138   1   -8.84970936 -29.63519786  3.05487978 
      139   2   -7.38425947 -28.12099797  4.58692967 
      140   1   -8.84790936 -26.60959808  6.12197956 
      141   3   -7.38057947 -25.11019819  7.56032945 
      142   1   -8.84680936 -23.61379830  9.00122935 
      143   1   -5.89167957 -29.57859787  6.12988956 
      144   3   -4.42894968 -28.06929797  7.56692945 
      145   1   -5.89448957 -26.56699808  9.00750935 
      146   3   -28.06849797 -13.27999904 -7.56082946 
      147   1   -29.58039786 -11.81839915 -6.12748956 
      148   2   -28.11969797 -10.32919925 -4.58719967 
      149   1   -29.63799786 -8.86531936 -3.05837978 
      150   1   -29.63699786 -2.94490979  3.05761978 
      151   2   -28.12179797 -1.48062989  4.58923967 
      152   1   -29.58049787  0.01058730  6.13204956 
      153   3   -28.07069797  1.47275990  7.56891945 
      154   1   -26.56979808 -17.71419872 -8.99572935 
      155   3   -25.10649819 -16.23269883 -7.55448945 
      156   1   -26.60979808 -14.76939894 -6.12010956 
      157   2   -25.14009819 -13.28489904 -4.58618967 
      158   1   -26.64719807 -11.81819915 -3.05733978 
      159   1   -26.64859808 -5.90016958  3.05458978 
      160   2   -25.14459818 -4.43307968  4.58727967 
      161   1   -26.61079808 -2.94507979  6.12479956 
      162   3   -25.11069819 -1.47870990  7.56338945 
      163   1   -26.56839808  0.00674111  9.00973935 
      164   1   -23.61589829 -20.66389851 -8.98945935 
      165   3   -22.14449840 -19.18759862 -7.55301946 
      166   1   -23.64109829 -17.72239872 -6.11827956 
      167   2   -22.16579840 -16.24099883 -4.58665967 
      168   1   -23.66579829 -14.77259893 -3.05807978 
      169   1   -23.66879829 -8.85621936  3.05405978 
      170   2   -22.17379840 -7.38573947  4.58749967 
      171   1   -23.64319829 -5.89961958  6.12338956 
      172   3   -22.15129840 -4.43045968  7.56352946 
      173   1   -23.61519830 -2.94673979  9.00528935 
      174   1   -20.66389851 -23.61589829 -8.98945935 
      175   3   -19.18759862 -22.14449840 -7.55301946 
      176   1   -20.67819851 -20.67819851 -6.11763956 
      177   2   -19.20009861 -19.20009861 -4.58750967 
      178   1   -20.69219851 -17.72929872 -3.05824978 
      179   1   -20.69569851 -11.81179915  3.05564978 
      180   2   -19.20869862 -10.33789926  4.58962967 
      181   1   -20.67959851 -8.85333936  6.12503956 
      182   3   -19.19409862 -7.38107947  7.56570945 
      183   1   -20.66099851 -5.89847957  9.00600935 
      184   1   -17.71419872 -26.56979808 -8.99572935 
      185   3   -16.23269883 -25.10649819 -7.55448945 
      186   1   -17.72239872 -23.64109829 -6.11827956 
      187   2   -16.24099883 -22.16579840 -4.58665967 
      188   1   -17.72929872 -20.69219851 -3.05824978 
      189   1   -17.72959872 -14.76859893  3.05674978 
      190   2   -16.24849883 -13.29139904  4.59138967 
      191   1   -17.71899872 -11.80609915  6.12776956 
      192   3   -16.23729883 -10.33039925  7.56725945 
      193   1   -17.70639872 -8.84861936  9.00775935 
      194   3   -13.27999904 -28.06849797 -7.56082946 
      195   1   -14.76939894 -26.60979808 -6.12010956 
      196   2   -13.28489904 -25.14009819 -4.58618967 
      197   1   -14.77259893 -23.66579829 -3.05807978 
      198   1   -14.76859893 -17.72959872  3.05674978 
      199   2   -13.29139904 -16.24849883  4.59138967 
      200   1   -14.76149893 -14.76149893  6.12800956 
      201   3   -13.28309904 -13.28309904  7.56748945 
      202   1   -14.75249894 -11.79949915  9.00810935 
      203   1   -11.81839915 -29.58039786 -6.12748956 
      204   2   -10.32919925 -28.11969797 -4.58719967 
      205   1   -11.81819915 -26.64719807 -3.05733978 
      206   1   -11.81179915 -20.69569851  3.05564978 
      207   2   -10.33789926 -19.20869862  4.58962967 
      208   1   -11.80609915 -17.71899872  6.12776956 
      209   3   -10.33039925 -16.23729883  7.56725945 
      210   1   -11.79949915 -14.75249894  9.00810935 
      211   1   -8.86531936 -29.63799786 -3.05837978 
      212   1   -8.85621936 -23.66879829  3.05405978 
      213   2   -7.38573947 -22.17379840  4.58749967 
      214   1   -8.85333936 -20.67959851  6.12503956 
      215   3   -7.38107947 -19.19409862  7.56570945 
      216   1   -8.84861936 -17.70639872  9.00775935 
      217   1   -5.90016958 -26.64859808  3.05458978 
      218   2   -4.43307968 -25.14459818  4.58727967 
      219   1   -5.89961958 -23.64319829  6.12338956 
      220   3   -4.43045968 -22.15129840  7.56352946 
      221   1   -5.89847957 -20.66099851  9.00600935 
      222   1   -2.94490979 -29.63699786  3.05761978 
      223   2   -1.48062989 -28.12179797  4.58923967 
      224   1   -2.94507979 -26.61079808  6.12479956 
      225   3   -1.47870990 -25.11069819  7.56338945 
      226   1   -2.94673979 -23.61519830  9.00528935 
      227   1    0.01058730 -29.58049787  6.13204956 
      228   3    1.47275990 -28.07069797  7.56891945 
      229   1    0.00674111 -26.56839808  9.00973935 
      230   3   -28.06959797 -7.37539947 -7.56717946 
      231   1   -29.58179787 -5.91369957 -6.13255956 
      232   2   -28.12319797 -4.42406968 -4.58932967 
      233   1   -29.63879786 -2.95897979 -3.05883978 
      234   1   -29.63879786  2.95897979  3.05883978 
      235   2   -28.12319797  4.42406968  4.58932967 
      236   1   -29.58179787  5.91369957  6.13255956 
      237   3   -28.06959797  7.37539947  7.56717946 
      238   1   -26.56939808 -11.81049915 -9.00379935 
      239   3   -25.10829819 -10.32639926 -7.56111946 
      240   1   -26.61199808 -8.86305936 -6.12519956 
      241   2   -25.14539818 -7.37771947 -4.58856967 
      242   1   -26.65119808 -5.91089958 -3.05767978 
      243   1   -26.64969808  0.00487200  3.05729978 
      244   2   -25.14649818  1.47287989  4.58918967 
      245   1   -26.61339808  2.95925979  6.12657956 
      246   3   -25.11089819  4.42415968  7.56387945 
      247   1   -26.56859808  5.90860957  9.00987935 
      248   1   -23.61529830 -14.75979894 -8.99829935 
      249   3   -22.14679840 -13.27949904 -7.56119945 
      250   1   -23.64299829 -11.81389915 -6.12460956 
      251   2   -22.17159840 -10.33129926 -4.59044967 
      252   1   -23.67139829 -8.86410936 -3.05935978 
      253   1   -23.67059829 -2.95039979  3.05706978 
      254   2   -22.17549840 -1.48083989  4.59078967 
      255   1   -23.64579829  0.00475412  6.12559956 
      256   3   -22.15259840  1.47225989  7.56585945 
      257   1   -23.61629829  2.95592979  9.00694935 
      258   1   -20.66139851 -17.70929872 -8.99812935 
      259   3   -19.18809861 -16.23169883 -7.56370946 
      260   1   -20.67839851 -14.76539893 -6.12710956 
      261   2   -19.20389861 -13.28519904 -4.59506967 
      262   1   -20.69639851 -11.81679915 -3.06288978 
      263   1   -20.69799851 -5.90577957  3.05741978 
      264   2   -19.20969861 -4.43451968  4.59304967 
      265   1   -20.68169851 -2.95031979  6.12857956 
      266   3   -19.19499861 -1.47954990  7.56973945 
      267   1   -20.66289851  0.00279024  9.00874935 
      268   1   -17.70929872 -20.66139851 -8.99812935 
      269   3   -16.23169883 -19.18809861 -7.56370946 
      270   1   -17.71959872 -17.71959872 -6.12927956 
      271   2   -16.24179883 -16.24179883 -4.59688967 
      272   1   -17.72979872 -14.77039893 -3.06622978 
      273   1   -17.73219872 -8.86077936  3.05846978 
      274   2   -16.24889883 -7.38638946  4.59407967 
      275   1   -17.72099872 -5.90405957  6.13160956 
      276   3   -16.23839883 -4.43103968  7.57227945 
      277   1   -17.70809872 -2.94973979  9.01242935 
      278   1   -14.75979894 -23.61529830 -8.99829935 
      279   3   -13.27949904 -22.14679840 -7.56119945 
      280   1   -14.76539893 -20.67839851 -6.12710956 
      281   2   -13.28519904 -19.20389861 -4.59506967 
      282   1   -14.77039893 -17.72979872 -3.06622978 
      283   1   -14.77189893 -11.81509915  3.06050978 
      284   2   -13.29189904 -10.33759925  4.59452967 
      285   1   -14.76349893 -8.85601936  6.13235956 
      286   3   -13.28399904 -7.38010947  7.57193945 
      287   1   -14.75399894 -5.90012958  9.01401935 
      288   1   -11.81049915 -26.56939808 -9.00379935 
      289   3   -10.32639926 -25.10829819 -7.56111946 
      290   1   -11.81389915 -23.64299829 -6.12460956 
      291   2   -10.33129926 -22.17159840 -4.59044967 
      292   1   -11.81679915 -20.69639851 -3.06288978 
      293   1   -11.81509915 -14.77189893  3.06050978 
      294   2   -10.33759925 -13.29189904  4.59452967 
      295   1   -11.80859915 -11.80859915  6.13222956 
      296   3   -10.33049926 -10.33049926  7.57100946 
      297   1   -11.80109915 -8.84999936  9.01283935 
      298   3   -7.37539947 -28.06959797 -7.56717946 
      299   1   -8.86305936 -26.61199808 -6.12519956 
      300   2   -7.37771947 -25.14539818 -4.58856967 
      301   1   -8.86410936 -23.67139829 -3.05935978 
      302   1   -8.86077936 -17.73219872  3.05846978 
      303   2   -7.38638946 -16.24889883  4.59407967 
      304   1   -8.85601936 -14.76349893  6.13235956 
      305   3   -7.38010947 -13.28399904  7.57193945 
      306   1   -8.84999936 -11.80109915  9.01283935 
      307   1   -5.91369957 -29.58179787 -6.13255956 
      308   2   -4.42406968 -28.12319797 -4.58932967 
      309   1   -5.91089958 -26.65119808 -3.05767978 
      310   1   -5.90577957 -20.69799851  3.05741978 
      311   2   -4.43451968 -19.20969861  4.59304967 
      312   1   -5.90405957 -17.72099872  6.13160956 
      313   3   -4.43103968 -16.23839883  7.57227945 
      314   1   -5.90012958 -14.75399894  9.01401935 
      315   1   -2.95897979 -29.63879786 -3.05883978 
      316   1   -2.95039979 -23.67059829  3.05706978 
      317   2   -1.48083989 -22.17549840  4.59078967 
      318   1   -2.95031979 -20.68169851  6.12857956 
      319   3   -1.47954990 -19.19499861  7.56973945 
      320   1   -2.94973979 -17.70809872  9.01242935 
      321   1    0.00487200 -26.64969808  3.05729978 
      322   2    1.47287989 -25.14649818  4.58918967 
      323   1    0.00475412 -23.64579829  6.12559956 
      324   3    1.47225989 -22.15259840  7.56585945 
      325   1    0.00279024 -20.66289851  9.00874935 
      326   1    2.95897979 -29.63879786  3.05883978 
      327   2    4.42406968 -28.12319797  4.58932967 
      328   1    2.95925979 -26.61339808  6.12657956 
      329   3    4.42415968 -25.11089819  7.56387945 
      330   1    2.95592979 -23.61629829  9.00694935 
      331   1    5.91369957 -29.58179787  6.13255956 
      332   3    7.37539947 -28.06959797  7.56717946 
      333   1    5.90860957 -26.56859808  9.00987935 
      334   3   -28.07069797 -1.47275990 -7.56891945 
      335   1   -29.58049787 -0.01058730 -6.13204956 
      336   2   -28.12179797  1.48062989 -4.58923967 
      337   1   -29.63699786  2.94490979 -3.05761978 
      338   1   -29.63799786  8.86531936  3.05837978 
      339   2   -28.11969797  10.32919925  4.58719967 
      340   1   -29.58039786  11.81839915  6.12748956 
      341   3   -28.06849797  13.27999904  7.56082946 
      342   1   -26.56859808 -5.90860957 -9.00987935 
      343   3   -25.11089819 -4.42415968 -7.56387945 
      344   1   -26.61339808 -2.95925979 -6.12657956 
      345   2   -25.14649818 -1.47287989 -4.58918967 
      346   1   -26.64969808 -0.00487200 -3.05729978 
      347   1   -26.65119808  5.91089958  3.05767978 
      348   2   -25.14539818  7.37771947  4.58856967 
      349   1   -26.61199808  8.86305936  6.12519956 
      350   3   -25.10829819  10.32639926  7.56111946 
      351   1   -26.56939808  11.81049915  9.00379935 
      352   1   -23.61469829 -8.85653936 -9.00484935 
      353   3   -22.14959840 -7.37498947 -7.56505946 
      354   1   -23.64619829 -5.90940957 -6.12707956 
      355   2   -22.17649840 -4.42587968 -4.59129967 
      356   1   -23.67329829 -2.95675978 -3.05869978 
      357   1   -23.67329829  2.95675978  3.05869978 
      358   2   -22.17649840  4.42587968  4.59129967 
      359   1   -23.64619829  5.90940957  6.12707956 
      360   3   -22.14959840  7.37498947  7.56505946 
      361   1   -23.61469829  8.85653936  9.00484935 
      362   1   -20.66039851 -11.80529915 -9.00494935 
      363   3   -19.19049861 -10.32529925 -7.56839945 
      364   1   -20.68159851 -8.85923936 -6.13022956 
      365   2   -19.21019862 -7.37870947 -4.59530967 
      366   1   -20.70189850 -5.90940957 -3.06214978 
      367   1   -20.70089851  0.00144389  3.06108978 
      368   2   -19.21239861  1.47296989  4.59591967 
      369   1   -20.68439851  2.95534979  6.13098956 
      370   3   -19.19439862  4.42373968  7.57046945 
      371   1   -20.66199851  5.90422957  9.00933935 
      372   1   -17.70629872 -14.75479894 -9.00787935 
      373   3   -16.23249883 -13.27789904 -7.57180945 
      374   1   -17.72019872 -11.80979915 -6.13508956 
      375   2   -16.24679883 -10.33109925 -4.59962967 
      376   1   -17.73519872 -8.86190936 -3.06594978 
      377   1   -17.73479872 -2.95459979  3.06252978 
      378   2   -16.25189882 -1.48177990  4.59907967 
      379   1   -17.72459872  0.00097028  6.13477956 
      380   3   -16.23939883  1.47185989  7.57508945 
      381   1   -17.70899872  2.95263979  9.01434935 
      382   1   -14.75479894 -17.70629872 -9.00787935 
      383   3   -13.27789904 -16.23249883 -7.57180945 
      384   1   -14.76289894 -14.76289894 -6.13740956 
      385   2   -13.28709904 -13.28709904 -4.60246967 
      386   1   -14.77259893 -11.81539915 -3.07066978 
      387   1   -14.77319893 -5.90813957  3.06285978 
      388   2   -13.29269904 -4.43352968  4.59857967 
      389   1   -14.76599894 -2.95345979  6.13698955 
      390   3   -13.28469904 -1.47944989  7.57685945 
      391   1   -14.75599894 -0.00001125  9.01733935 
      392   1   -11.80529915 -20.66039851 -9.00494935 
      393   3   -10.32529925 -19.19049861 -7.56839945 
      394   1   -11.80979915 -17.72019872 -6.13508956 
      395   2   -10.33109925 -16.24679883 -4.59962967 
      396   1   -11.81539915 -14.77259893 -3.07066978 
      397   1   -11.81599915 -8.86185936  3.06140978 
      398   2   -10.33749926 -7.38484947  4.59617967 
      399   1   -11.80919915 -5.90505958  6.13586956 
      400   3   -10.33049926 -4.43005968  7.57566945 
      401   1   -11.80239915 -2.95197978  9.01844935 
      402   1   -8.85653936 -23.61469829 -9.00484935 
      403   3   -7.37498947 -22.14959840 -7.56505946 
      404   1   -8.85923936 -20.68159851 -6.13022956 
      405   2   -7.37870947 -19.21019862 -4.59530967 
      406   1   -8.86190936 -17.73519872 -3.06594978 
      407   1   -8.86185936 -11.81599915  3.06140978 
      408   2   -7.38484947 -10.33749926  4.59617967 
      409   1   -8.85621936 -8.85621936  6.13429956 
      410   3   -7.37957947 -7.37957947  7.57427945 
      411   1   -8.85050936 -5.90120957  9.01755935 
      412   1   -5.90860957 -26.56859808 -9.00987935 
      413   3   -4.42415968 -25.11089819 -7.56387945 
      414   1   -5.90940957 -23.64619829 -6.12707956 
      415   2   -4.42587968 -22.17649840 -4.59129967 
      416   1   -5.90940957 -20.70189850 -3.06214978 
      417   1   -5.90813957 -14.77319893  3.06285978 
      418   2   -4.43352968 -13.29269904  4.59857967 
      419   1   -5.90505958 -11.80919915  6.13586956 
      420   3   -4.43005968 -10.33049926  7.57566945 
      421   1   -5.90120957 -8.85050936  9.01755935 
      422   3   -1.47275990 -28.07069797 -7.56891945 
      423   1   -2.95925979 -26.61339808 -6.12657956 
      424   2   -1.47287989 -25.14649818 -4.58918967 
      425   1   -2.95675978 -23.67329829 -3.05869978 
      426   1   -2.95459979 -17.73479872  3.06252978 
      427   2   -1.48177990 -16.25189882  4.59907967 
      428   1   -2.95345979 -14.76599894  6.13698955 
      429   3   -1.47944989 -13.28469904  7.57685945 
      430   1   -2.95197978 -11.80239915  9.01844935 
      431   1   -0.01058730 -29.58049787 -6.13204956 
      432   2    1.48062989 -28.12179797 -4.58923967 
      433   1   -0.00487200 -26.64969808 -3.05729978 
      434   1    0.00144389 -20.70089851  3.06108978 
      435   2    1.47296989 -19.21239861  4.59591967 
      436   1    0.00097028 -17.72459872  6.13477956 
      437   3    1.47185989 -16.23939883  7.57508945 
      438   1   -0.00001125 -14.75599894  9.01733935 
      439   1    2.94490979 -29.63699786 -3.05761978 
      440   1    2.95675978 -23.67329829  3.05869978 
      441   2    4.42587968 -22.17649840  4.59129967 
      442   1    2.95534979 -20.68439851  6.13098956 
      443   3    4.42373968 -19.19439862  7.57046945 
      444   1    2.95263979 -17.70899872  9.01434935 
      445   1    5.91089958 -26.65119808  3.05767978 
      446   2    7.37771947 -25.14539818  4.58856967 
      447   1    5.90940957 -23.64619829  6.12707956 
      448   3    7.37498947 -22.14959840  7.56505946 
      449   1    5.90422957 -20.66199851  9.00933935 
      450   1    8.86531936 -29.63799786  3.05837978 
      451   2    10.32919925 -28.11969797  4.58719967 
      452   1    8.86305936 -26.61199808  6.12519956 
      453   3    10.32639926 -25.10829819  7.56111946 
      454   1    8.85653936 -23.61469829  9.00484935 
      455   1    11.81839915 -29.58039786  6.12748956 
      456   3    13.27999904 -28.06849797  7.56082946 
      457   1    11.81049915 -26.56939808  9.00379935 
      458   3   -28.06929797  4.42894968 -7.56692945 
      459   1   -29.57859787  5.89167957 -6.12988956 
      460   2   -28.12099797  7.38425947 -4.58692967 
      461   1   -29.63519786  8.84970936 -3.05487978 
      462   1   -29.63329786  14.77489893  3.05518978 
      463   2   -28.11449797  16.23939883  4.58184967 
      464   1   -29.57839786  17.72839872  6.11924956 
      465   3   -28.06519797  19.18839862  7.55148946 
      466   1   -26.56839808 -0.00674111 -9.00973935 
      467   3   -25.11069819  1.47870990 -7.56338945 
      468   1   -26.61079808  2.94507979 -6.12479956 
      469   2   -25.14459818  4.43307968 -4.58727967 
      470   1   -26.64859808  5.90016958 -3.05458978 
      471   1   -26.64719807  11.81819915  3.05733978 
      472   2   -25.14009819  13.28489904  4.58618967 
      473   1   -26.60979808  14.76939894  6.12010956 
      474   3   -25.10649819  16.23269883  7.55448945 
      475   1   -26.56979808  17.71419872  8.99572935 
      476   1   -23.61629829 -2.95592979 -9.00694935 
      477   3   -22.15259840 -1.47225989 -7.56585945 
      478   1   -23.64579829 -0.00475412 -6.12559956 
      479   2   -22.17549840  1.48083989 -4.59078967 
      480   1   -23.67059829  2.95039979 -3.05706978 
      481   1   -23.67139829  8.86410936  3.05935978 
      482   2   -22.17159840  10.33129926  4.59044967 
      483   1   -23.64299829  11.81389915  6.12460956 
      484   3   -22.14679840  13.27949904  7.56119945 
      485   1   -23.61529830  14.75979894  8.99829935 
      486   1   -20.66199851 -5.90422957 -9.00933935 
      487   3   -19.19439862 -4.42373968 -7.57046945 
      488   1   -20.68439851 -2.95534979 -6.13098956 
      489   2   -19.21239861 -1.47296989 -4.59591967 
      490   1   -20.70089851 -0.00144389 -3.06108978 
      491   1   -20.70189850  5.90940957  3.06214978 
      492   2   -19.21019862  7.37870947  4.59530967 
      493   1   -20.68159851  8.85923936  6.13022956 
      494   3   -19.19049861  10.32529925  7.56839945 
      495   1   -20.66039851  11.80529915  9.00494935 
      496   1   -17.70669872 -8.85167936 -9.01203935 
      497   3   -16.23589883 -7.37362947 -7.57360945 
      498   1   -17.72469872 -5.90584957 -6.13581956 
      499   2   -16.25229882 -4.42598968 -4.59949967 
      500   1   -17.73829872 -2.95427978 -3.06524978 
      501   1   -17.73829872  2.95427978  3.06524978 
      502   2   -16.25229882  4.42598968  4.59949967 
      503   1   -17.72469872  5.90584957  6.13581956 
      504   3   -16.23589883  7.37362947  7.57360945 
      505   1   -17.70669872  8.85167936  9.01203935 
      506   1   -14.75269893 -11.80069915 -9.01437935 
      507   3   -13.27949904 -10.32449926 -7.57573945 
      508   1   -14.76529893 -8.85553936 -6.13879956 
      509   2   -13.29209904 -7.37903947 -4.60168967 
      510   1   -14.77739893 -5.90704957 -3.06879978 
      511   1   -14.77749894 -0.00112084  3.06795978 
      512   2   -13.29499904  1.47256989  4.60261967 
      513   1   -14.76869894  2.95181979  6.13892956 
      514   3   -13.28359904  4.42286968  7.57703945 
      515   1   -14.75499893  5.90018957  9.01702935 
      516   1   -11.80069915 -14.75269893 -9.01437935 
      517   3   -10.32449926 -13.27949904 -7.57573945 
      518   1   -11.80849915 -11.80849915 -6.14065956 
      519   2   -10.33409925 -10.33409925 -4.60241967 
      520   1   -11.81859915 -8.86194936 -3.07048978 
      521   1   -11.81879914 -2.95450979  3.06608978 
      522   2   -10.33909925 -1.47987990  4.60136967 
      523   1   -11.81229914 -0.00157047  6.13965956 
      524   3   -10.33049926  1.47133990  7.57906945 
      525   1   -11.80279915  2.94943979  9.02016935 
      526   1   -8.85167936 -17.70669872 -9.01203935 
      527   3   -7.37362947 -16.23589883 -7.57360945 
      528   1   -8.85553936 -14.76529893 -6.13879956 
      529   2   -7.37903947 -13.29209904 -4.60168967 
      530   1   -8.86194936 -11.81859915 -3.07048978 
      531   1   -8.86292936 -5.90767957  3.06242978 
      532   2   -7.38447947 -4.43178968  4.59832967 
      533   1   -8.85713936 -2.95324979  6.13881956 
      534   3   -7.37880947 -1.47856989  7.57925945 
      535   1   -8.85078936 -0.00152724  9.02220935 
      536   1   -5.90422957 -20.66199851 -9.00933935 
      537   3   -4.42373968 -19.19439862 -7.57046945 
      538   1   -5.90584957 -17.72469872 -6.13581956 
      539   2   -4.42598968 -16.25229882 -4.59949967 
      540   1   -5.90704957 -14.77739893 -3.06879978 
      541   1   -5.90767957 -8.86292936  3.06242978 
      542   2   -4.43178968 -7.38447947  4.59832967 
      543   1   -5.90434957 -5.90434957  6.13752956 
      544   3   -4.42853968 -4.42853968  7.57822945 
      545   1   -5.90064957 -2.95145979  9.02237935 
      546   1   -2.95592979 -23.61629829 -9.00694935 