LAMMPS configuration data file

  2425 atoms

  3 atom types

  -43.562000  43.562000  xlo xhi
  -43.562000  43.562000  ylo yhi
  -43.562000  43.562000  zlo zhi

 Masses

  1   32.065
  2   112.411
  3   78.960

 Atoms

        1   1   -17.78650000 -11.91960000  11.91960000 
        2   1   -14.88720000 -14.88720000  11.93970000 
        3   1   -14.88720000 -11.93970000  14.88720000 
        4   1   -11.91960000 -17.78650000  11.91960000 
        5   1   -11.93970000 -14.88720000  14.88720000 
        6   1   -11.91960000 -11.91960000  17.78650000 
        7   1   -20.71690000 -11.91690000  2.99541000 
        8   1   -20.73680000 -8.97371000  5.99930000 
        9   2   -22.14560000 -7.44167000  7.44167000 
       10   1   -20.73680000 -5.99930000  8.97371000 
       11   1   -20.71690000 -2.99541000  11.91690000 
       12   1   -17.82150000 -14.88590000  2.99605000 
       13   2   -19.25930000 -13.39070000  4.45209000 
       14   1   -17.85950000 -11.97110000  6.01075000 
       15   2   -19.26170000 -10.43290000  7.45456000 
       16   1   -17.85560000 -9.00068000  9.00068000 
       17   2   -19.26170000 -7.45456000  10.43290000 
       18   1   -17.85950000 -6.01075000  11.97110000 
       19   2   -19.25930000 -4.45209000  13.39070000 
       20   1   -17.82150000 -2.99605000  14.88590000 
       21   1   -14.88590000 -17.82150000  2.99605000 
       22   2   -16.34510000 -16.34510000  4.44922000 
       23   1   -14.94280000 -14.94280000  6.02028000 
       24   2   -16.37670000 -13.42950000  7.46085000 
       25   1   -14.96980000 -12.01590000  9.02064000 
       26   2   -16.36080000 -10.45000000  10.45000000 
       27   1   -14.96980000 -9.02064000  12.01590000 
       28   2   -16.37670000 -7.46085000  13.42950000 
       29   1   -14.94280000 -6.02028000  14.94280000 
       30   2   -16.34510000 -4.44922000  16.34510000 
       31   1   -14.88590000 -2.99605000  17.82150000 
       32   1   -11.91690000 -20.71690000  2.99541000 
       33   2   -13.39070000 -19.25930000  4.45209000 
       34   1   -11.97110000 -17.85950000  6.01075000 
       35   2   -13.42950000 -16.37670000  7.46085000 
       36   1   -12.01590000 -14.96980000  9.02064000 
       37   2   -13.44630000 -13.44630000  10.45920000 
       38   1   -12.05250000 -12.05250000  12.05250000 
       39   2   -13.44630000 -10.45920000  13.44630000 
       40   1   -12.01590000 -9.02064000  14.96980000 
       41   2   -13.42950000 -7.46085000  16.37670000 
       42   1   -11.97110000 -6.01075000  17.85950000 
       43   2   -13.39070000 -4.45209000  19.25930000 
       44   1   -11.91690000 -2.99541000  20.71690000 
       45   1   -8.97371000 -20.73680000  5.99930000 
       46   2   -10.43290000 -19.26170000  7.45456000 
       47   1   -9.00068000 -17.85560000  9.00068000 
       48   2   -10.45000000 -16.36080000  10.45000000 
       49   1   -9.02064000 -14.96980000  12.01590000 
       50   2   -10.45920000 -13.44630000  13.44630000 
       51   1   -9.02064000 -12.01590000  14.96980000 
       52   2   -10.45000000 -10.45000000  16.36080000 
       53   1   -9.00068000 -9.00068000  17.85560000 
       54   2   -10.43290000 -7.45456000  19.26170000 
       55   1   -8.97371000 -5.99930000  20.73680000 
       56   2   -7.44167000 -22.14560000  7.44167000 
       57   1   -5.99930000 -20.73680000  8.97371000 
       58   2   -7.45456000 -19.26170000  10.43290000 
       59   1   -6.01075000 -17.85950000  11.97110000 
       60   2   -7.46085000 -16.37670000  13.42950000 
       61   1   -6.02028000 -14.94280000  14.94280000 
       62   2   -7.46085000 -13.42950000  16.37670000 
       63   1   -6.01075000 -11.97110000  17.85950000 
       64   2   -7.45456000 -10.43290000  19.26170000 
       65   1   -5.99930000 -8.97371000  20.73680000 
       66   2   -7.44167000 -7.44167000  22.14560000 
       67   1   -2.99541000 -20.71690000  11.91690000 
       68   2   -4.45209000 -19.25930000  13.39070000 
       69   1   -2.99605000 -17.82150000  14.88590000 
       70   2   -4.44922000 -16.34510000  16.34510000 
       71   1   -2.99605000 -14.88590000  17.82150000 
       72   2   -4.45209000 -13.39070000  19.25930000 
       73   1   -2.99541000 -11.91690000  20.71690000 
       74   1   -23.53640000 -5.96873000 -0.00781285 
       75   1   -23.54740000 -2.98489000  2.98489000 
       76   1   -23.53640000  0.00781285  5.96873000 
       77   1   -20.71190000 -11.93250000 -2.99231000 
       78   2   -22.12320000 -10.42880000 -1.52309000 
       79   1   -20.72690000 -8.98298000  0.00468131 
       80   2   -22.13740000 -7.47322000  1.47264000 
       81   1   -20.76380000 -6.01534000  3.01868000 
       82   2   -22.14810000 -4.47708000  4.47708000 
       83   1   -20.76380000 -3.01868000  6.01534000 
       84   2   -22.13740000 -1.47264000  7.47322000 
       85   1   -20.72690000 -0.00468132  8.98298000 
       86   2   -22.12320000  1.52309000  10.42880000 
       87   1   -20.71190000  2.99231000  11.93250000 
       88   1   -17.82900000 -14.90380000 -3.00506000 
       89   2   -19.28180000 -13.43370000 -1.53913000 
       90   1   -17.88120000 -12.00370000  0.00010716 
       91   2   -19.30530000 -10.49330000  1.46035000 
       92   1   -17.96200000 -9.05471000  3.04849000 
       93   2   -19.34330000 -7.50432000  4.49900000 
       94   1   -17.97050000 -6.06318000  6.06318000 
       95   2   -19.34330000 -4.49900000  7.50432000 
       96   1   -17.96200000 -3.04849000  9.05471000 
       97   2   -19.30530000 -1.46035000  10.49330000 
       98   1   -17.88120000 -0.00010716  12.00370000 
       99   2   -19.28180000  1.53913000  13.43370000 
      100   1   -17.82900000  3.00506000  14.90380000 
      101   1   -14.90380000 -17.82900000 -3.00506000 
      102   2   -16.37300000 -16.37300000 -1.54235000 
      103   1   -14.95690000 -14.95690000 -0.00289615 
      104   2   -16.40890000 -13.47000000  1.45454000 
      105   1   -15.05560000 -12.08020000  3.07922000 
      106   2   -16.47230000 -10.51720000  4.48909000 
      107   1   -15.10190000 -9.09534000  6.07303000 
      108   2   -16.46900000 -7.51194000  7.51194000 
      109   1   -15.10190000 -6.07303000  9.09534000 
      110   2   -16.47230000 -4.48909000  10.51720000 
      111   1   -15.05560000 -3.07922000  12.08020000 
      112   2   -16.40890000 -1.45454000  13.47000000 
      113   1   -14.95690000  0.00289615  14.95690000 
      114   2   -16.37300000  1.54235000  16.37300000 
      115   1   -14.90380000  3.00506000  17.82900000 
      116   1   -11.93250000 -20.71190000 -2.99231000 
      117   2   -13.43370000 -19.28180000 -1.53913000 
      118   1   -12.00370000 -17.88120000  0.00010716 
      119   2   -13.47000000 -16.40890000  1.45454000 
      120   1   -12.08020000 -15.05560000  3.07922000 
      121   2   -13.52740000 -13.52740000  4.49230000 
      122   1   -12.12670000 -12.12670000  6.06189000 
      123   2   -13.60630000 -10.60670000  7.44720000 
      124   3   -12.16390000 -9.09316000  9.09316000 
      125   2   -13.60630000 -7.44720000  10.60670000 
      126   1   -12.12670000 -6.06189000  12.12670000 
      127   2   -13.52740000 -4.49230000  13.52740000 
      128   1   -12.08020000 -3.07922000  15.05560000 
      129   2   -13.47000000 -1.45454000  16.40890000 
      130   1   -12.00370000 -0.00010716  17.88120000 
      131   2   -13.43370000  1.53913000  19.28180000 
      132   1   -11.93250000  2.99231000  20.71190000 
      133   2   -10.42880000 -22.12320000 -1.52309000 
      134   1   -8.98298000 -20.72690000  0.00468131 
      135   2   -10.49330000 -19.30530000  1.46035000 
      136   1   -9.05471000 -17.96200000  3.04849000 
      137   2   -10.51720000 -16.47230000  4.48909000 
      138   1   -9.09534000 -15.10190000  6.07303000 
      139   2   -10.60670000 -13.60630000  7.44720000 
      140   3   -9.09316000 -12.16390000  9.09316000 
      141   2   -10.60980000 -10.60980000  10.60980000 
      142   3   -9.09316000 -9.09316000  12.16390000 
      143   2   -10.60670000 -7.44720000  13.60630000 
      144   1   -9.09534000 -6.07303000  15.10190000 
      145   2   -10.51720000 -4.48909000  16.47230000 
      146   1   -9.05471000 -3.04849000  17.96200000 
      147   2   -10.49330000 -1.46035000  19.30530000 
      148   1   -8.98298000 -0.00468132  20.72690000 
      149   2   -10.42880000  1.52309000  22.12320000 
      150   1   -5.96873000 -23.53640000 -0.00781285 
      151   2   -7.47322000 -22.13740000  1.47264000 
      152   1   -6.01534000 -20.76380000  3.01868000 
      153   2   -7.50432000 -19.34330000  4.49900000 
      154   1   -6.06318000 -17.97050000  6.06318000 
      155   2   -7.51194000 -16.46900000  7.51194000 
      156   1   -6.07303000 -15.10190000  9.09534000 
      157   2   -7.44720000 -13.60630000  10.60670000 
      158   1   -6.06189000 -12.12670000  12.12670000 
      159   2   -7.44720000 -10.60670000  13.60630000 
      160   1   -6.07303000 -9.09534000  15.10190000 
      161   2   -7.51194000 -7.51194000  16.46900000 
      162   1   -6.06318000 -6.06318000  17.97050000 
      163   2   -7.50432000 -4.49900000  19.34330000 
      164   1   -6.01534000 -3.01868000  20.76380000 
      165   2   -7.47322000 -1.47264000  22.13740000 
      166   1   -5.96873000  0.00781285  23.53640000 
      167   1   -2.98489000 -23.54740000  2.98489000 
      168   2   -4.47708000 -22.14810000  4.47708000 
      169   1   -3.01868000 -20.76380000  6.01534000 
      170   2   -4.49900000 -19.34330000  7.50432000 
      171   1   -3.04849000 -17.96200000  9.05471000 
      172   2   -4.48909000 -16.47230000  10.51720000 
      173   1   -3.07922000 -15.05560000  12.08020000 
      174   2   -4.49230000 -13.52740000  13.52740000 
      175   1   -3.07922000 -12.08020000  15.05560000 
      176   2   -4.48909000 -10.51720000  16.47230000 
      177   1   -3.04849000 -9.05471000  17.96200000 
      178   2   -4.49900000 -7.50432000  19.34330000 
      179   1   -3.01868000 -6.01534000  20.76380000 
      180   2   -4.47708000 -4.47708000  22.14810000 
      181   1   -2.98489000 -2.98489000  23.54740000 
      182   1    0.00781285 -23.53640000  5.96873000 
      183   2   -1.47264000 -22.13740000  7.47322000 
      184   1   -0.00468131 -20.72690000  8.98298000 
      185   2   -1.46035000 -19.30530000  10.49330000 
      186   1   -0.00010716 -17.88120000  12.00370000 
      187   2   -1.45454000 -16.40890000  13.47000000 
      188   1    0.00289615 -14.95690000  14.95690000 
      189   2   -1.45454000 -13.47000000  16.40890000 
      190   1   -0.00010716 -12.00370000  17.88120000 
      191   2   -1.46035000 -10.49330000  19.30530000 
      192   1   -0.00468132 -8.98298000  20.72690000 
      193   2   -1.47264000 -7.47322000  22.13740000 
      194   1    0.00781285 -5.96873000  23.53640000 
      195   2    1.52309000 -22.12320000  10.42880000 
      196   1    2.99231000 -20.71190000  11.93250000 
      197   2    1.53913000 -19.28180000  13.43370000 
      198   1    3.00506000 -17.82900000  14.90380000 
      199   2    1.54235000 -16.37300000  16.37300000 
      200   1    3.00506000 -14.90380000  17.82900000 
      201   2    1.53913000 -13.43370000  19.28180000 
      202   1    2.99231000 -11.93250000  20.71190000 
      203   2    1.52309000 -10.42880000  22.12320000 
      204   1   -23.54390000 -2.99365000 -2.99365000 
      205   1   -23.56200000 -0.00000000 -0.00000000 
      206   1   -23.54390000  2.99365000  2.99365000 
      207   1   -20.72450000 -8.97645000 -6.00027000 
      208   2   -22.13660000 -7.48676000 -4.51853000 
      209   1   -20.74770000 -6.00877000 -3.01730000 
      210   2   -22.14510000 -4.50812000 -1.52947000 
      211   1   -20.80190000 -3.00765000 -0.00301256 
      212   2   -22.16710000 -1.49002000  1.49002000 
      213   1   -20.80190000  0.00301256  3.00765000 
      214   2   -22.14510000  1.52947000  4.50812000 
      215   1   -20.74770000  3.01730000  6.00877000 
      216   2   -22.13660000  4.51853000  7.48676000 
      217   1   -20.72450000  6.00027000  8.97645000 
      218   2   -19.28150000 -13.42730000 -7.51625000 
      219   1   -17.86080000 -11.97560000 -6.02739000 
      220   2   -19.32710000 -10.51800000 -4.56369000 
      221   1   -17.95300000 -9.05157000 -3.04617000 
      222   2   -19.36090000 -7.54845000 -1.56476000 
      223   1   -18.07060000 -6.03871000 -0.00690086 
      224   2   -19.42910000 -4.51771000  1.48694000 
      225   1   -18.09310000 -3.01879000  3.01879000 
      226   2   -19.42910000 -1.48694000  4.51771000 
      227   1   -18.07060000  0.00690085  6.03871000 
      228   2   -19.36090000  1.56476000  7.54845000 
      229   1   -17.95300000  3.04617000  9.05157000 
      230   2   -19.32710000  4.56369000  10.51800000 
      231   1   -17.86080000  6.02739000  11.97560000 
      232   2   -19.28150000  7.51625000  13.42730000 
      233   2   -16.38570000 -16.38570000 -7.53438000 
      234   1   -14.94820000 -14.94820000 -6.04641000 
      235   2   -16.44460000 -13.50960000 -4.59681000 
      236   1   -15.03530000 -12.07320000 -3.08771000 
      237   2   -16.55500000 -10.63930000 -1.66150000 
      238   3   -15.15820000 -9.11908000 -0.00734593 
      239   2   -16.70480000 -7.55875000  1.46617000 
      240   3   -15.18890000 -6.07802000  3.04099000 
      241   2   -16.72640000 -4.51659000  4.51659000 
      242   3   -15.18890000 -3.04099000  6.07802000 
      243   2   -16.70480000 -1.46617000  7.55875000 
      244   3   -15.15820000  0.00734592  9.11908000 
      245   2   -16.55500000  1.66150000  10.63930000 
      246   1   -15.03530000  3.08771000  12.07320000 
      247   2   -16.44460000  4.59681000  13.50960000 
      248   1   -14.94820000  6.04641000  14.94820000 
      249   2   -16.38570000  7.53438000  16.38570000 
      250   2   -13.42730000 -19.28150000 -7.51625000 
      251   1   -11.97560000 -17.86080000 -6.02739000 
      252   2   -13.50960000 -16.44460000 -4.59681000 
      253   1   -12.07320000 -15.03530000 -3.08771000 
      254   2   -13.61260000 -13.61260000 -1.66963000 
      255   3   -12.15500000 -12.15500000 -0.00819862 
      256   2   -13.67740000 -10.65820000  1.54588000 
      257   3   -12.16460000 -9.13260000  3.07183000 
      258   2   -13.71150000 -7.62857000  4.59099000 
      259   3   -12.18210000 -6.07948000  6.07948000 
      260   2   -13.71150000 -4.59099000  7.62857000 
      261   3   -12.16460000 -3.07183000  9.13260000 
      262   2   -13.67740000 -1.54588000  10.65820000 
      263   3   -12.15500000  0.00819861  12.15500000 
      264   2   -13.61260000  1.66963000  13.61260000 
      265   1   -12.07320000  3.08771000  15.03530000 
      266   2   -13.50960000  4.59681000  16.44460000 
      267   1   -11.97560000  6.02739000  17.86080000 
      268   2   -13.42730000  7.51625000  19.28150000 
      269   1   -8.97645000 -20.72450000 -6.00027000 
      270   2   -10.51800000 -19.32710000 -4.56369000 
      271   1   -9.05157000 -17.95300000 -3.04617000 
      272   2   -10.63930000 -16.55500000 -1.66150000 
      273   3   -9.11908000 -15.15820000 -0.00734593 
      274   2   -10.65820000 -13.67740000  1.54588000 
      275   3   -9.13260000 -12.16460000  3.07183000 
      276   2   -10.68090000 -10.68090000  4.61187000 
      277   3   -9.12881000 -9.12881000  6.07296000 
      278   2   -10.62950000 -7.58326000  7.58326000 
      279   3   -9.12881000 -6.07296000  9.12881000 
      280   2   -10.68090000 -4.61187000  10.68090000 
      281   3   -9.13260000 -3.07183000  12.16460000 
      282   2   -10.65820000 -1.54588000  13.67740000 
      283   3   -9.11908000  0.00734592  15.15820000 
      284   2   -10.63930000  1.66150000  16.55500000 
      285   1   -9.05157000  3.04617000  17.95300000 
      286   2   -10.51800000  4.56369000  19.32710000 
      287   1   -8.97645000  6.00027000  20.72450000 
      288   2   -7.48676000 -22.13660000 -4.51853000 
      289   1   -6.00877000 -20.74770000 -3.01730000 
      290   2   -7.54845000 -19.36090000 -1.56476000 
      291   1   -6.03871000 -18.07060000 -0.00690086 
      292   2   -7.55875000 -16.70480000  1.46617000 
      293   3   -6.07802000 -15.18890000  3.04099000 
      294   2   -7.62857000 -13.71150000  4.59099000 
      295   3   -6.07948000 -12.18210000  6.07948000 
      296   2   -7.58326000 -10.62950000  7.58326000 
      297   3   -6.07296000 -9.12881000  9.12881000 
      298   2   -7.58326000 -7.58326000  10.62950000 
      299   3   -6.07948000 -6.07948000  12.18210000 
      300   2   -7.62857000 -4.59099000  13.71150000 
      301   3   -6.07802000 -3.04099000  15.18890000 
      302   2   -7.55875000 -1.46617000  16.70480000 
      303   1   -6.03871000  0.00690085  18.07060000 
      304   2   -7.54845000  1.56476000  19.36090000 
      305   1   -6.00877000  3.01730000  20.74770000 
      306   2   -7.48676000  4.51853000  22.13660000 
      307   1   -2.99365000 -23.54390000 -2.99365000 
      308   2   -4.50812000 -22.14510000 -1.52947000 
      309   1   -3.00765000 -20.80190000 -0.00301256 
      310   2   -4.51771000 -19.42910000  1.48694000 
      311   1   -3.01879000 -18.09310000  3.01879000 
      312   2   -4.51659000 -16.72640000  4.51659000 
      313   3   -3.04099000 -15.18890000  6.07802000 
      314   2   -4.59099000 -13.71150000  7.62857000 
      315   3   -3.07183000 -12.16460000  9.13260000 
      316   2   -4.61187000 -10.68090000  10.68090000 
      317   3   -3.07183000 -9.13260000  12.16460000 
      318   2   -4.59099000 -7.62857000  13.71150000 
      319   3   -3.04099000 -6.07802000  15.18890000 
      320   2   -4.51659000 -4.51659000  16.72640000 
      321   1   -3.01879000 -3.01879000  18.09310000 
      322   2   -4.51771000 -1.48694000  19.42910000 
      323   1   -3.00765000  0.00301256  20.80190000 
      324   2   -4.50812000  1.52947000  22.14510000 
      325   1   -2.99365000  2.99365000  23.54390000 
      326   1   -0.00000000 -23.56200000 -0.00000000 
      327   2   -1.49002000 -22.16710000  1.49002000 
      328   1    0.00301256 -20.80190000  3.00765000 
      329   2   -1.48694000 -19.42910000  4.51771000 
      330   1    0.00690085 -18.07060000  6.03871000 
      331   2   -1.46617000 -16.70480000  7.55875000 
      332   3    0.00734592 -15.15820000  9.11908000 
      333   2   -1.54588000 -13.67740000  10.65820000 
      334   3    0.00819861 -12.15500000  12.15500000 
      335   2   -1.54588000 -10.65820000  13.67740000 
      336   3    0.00734592 -9.11908000  15.15820000 
      337   2   -1.46617000 -7.55875000  16.70480000 
      338   1    0.00690085 -6.03871000  18.07060000 
      339   2   -1.48694000 -4.51771000  19.42910000 
      340   1    0.00301256 -3.00765000  20.80190000 
      341   2   -1.49002000 -1.49002000  22.16710000 
      342   1   -0.00000000 -0.00000000  23.56200000 
      343   1    2.99365000 -23.54390000  2.99365000 
      344   2    1.52947000 -22.14510000  4.50812000 
      345   1    3.01730000 -20.74770000  6.00877000 
      346   2    1.56476000 -19.36090000  7.54845000 
      347   1    3.04617000 -17.95300000  9.05157000 
      348   2    1.66150000 -16.55500000  10.63930000 
      349   1    3.08771000 -15.03530000  12.07320000 
      350   2    1.66963000 -13.61260000  13.61260000 
      351   1    3.08771000 -12.07320000  15.03530000 
      352   2    1.66150000 -10.63930000  16.55500000 
      353   1    3.04617000 -9.05157000  17.95300000 
      354   2    1.56476000 -7.54845000  19.36090000 
      355   1    3.01730000 -6.00877000  20.74770000 
      356   2    1.52947000 -4.50812000  22.14510000 
      357   1    2.99365000 -2.99365000  23.54390000 
      358   2    4.51853000 -22.13660000  7.48676000 
      359   1    6.00027000 -20.72450000  8.97645000 
      360   2    4.56369000 -19.32710000  10.51800000 
      361   1    6.02739000 -17.86080000  11.97560000 
      362   2    4.59681000 -16.44460000  13.50960000 
      363   1    6.04641000 -14.94820000  14.94820000 
      364   2    4.59681000 -13.50960000  16.44460000 
      365   1    6.02739000 -11.97560000  17.86080000 
      366   2    4.56369000 -10.51800000  19.32710000 
      367   1    6.00027000 -8.97645000  20.72450000 
      368   2    4.51853000 -7.48676000  22.13660000 
      369   2    7.51625000 -19.28150000  13.42730000 
      370   2    7.53438000 -16.38570000  16.38570000 
      371   2    7.51625000 -13.42730000  19.28150000 
      372   1   -23.53640000 -0.00781285 -5.96873000 
      373   1   -23.54740000  2.98489000 -2.98489000 
      374   1   -23.53640000  5.96873000  0.00781285 
      375   1   -20.72450000 -6.00027000 -8.97645000 
      376   2   -22.13660000 -4.51853000 -7.48676000 
      377   1   -20.74770000 -3.01730000 -6.00877000 
      378   2   -22.14510000 -1.52947000 -4.50812000 
      379   1   -20.80190000 -0.00301256 -3.00765000 
      380   2   -22.16710000  1.49002000 -1.49002000 
      381   1   -20.80190000  3.00765000  0.00301256 
      382   2   -22.14510000  4.50812000  1.52947000 
      383   1   -20.74770000  6.00877000  3.01730000 
      384   2   -22.13660000  7.48676000  4.51853000 
      385   1   -20.72450000  8.97645000  6.00027000 
      386   1   -17.84570000 -11.95620000 -11.95620000 
      387   2   -19.29040000 -10.48570000 -10.48570000 
      388   1   -17.86430000 -9.01613000 -9.01613000 
      389   2   -19.32700000 -7.55291000 -7.55291000 
      390   1   -17.95700000 -6.05807000 -6.05807000 
      391   2   -19.36480000 -4.56502000 -4.56502000 
      392   1   -18.08250000 -3.02693000 -3.02693000 
      393   2   -19.43830000 -1.51743000 -1.51743000 
      394   1   -18.10570000 -0.00000000 -0.00000000 
      395   2   -19.43830000  1.51743000  1.51743000 
      396   1   -18.08250000  3.02693000  3.02693000 
      397   2   -19.36480000  4.56502000  4.56502000 
      398   1   -17.95700000  6.05807000  6.05807000 
      399   2   -19.32700000  7.55291000  7.55291000 
      400   1   -17.86430000  9.01613000  9.01613000 
      401   2   -19.29040000  10.48570000  10.48570000 
      402   1   -17.84570000  11.95620000  11.95620000 
      403   1   -14.92540000 -14.92540000 -11.96310000 
      404   2   -16.41860000 -13.47690000 -10.52080000 
      405   1   -14.98410000 -12.03190000 -9.03732000 
      406   2   -16.45870000 -10.56470000 -7.59059000 
      407   1   -15.08040000 -9.10435000 -6.07291000 
      408   2   -16.59250000 -7.65834000 -4.65320000 
      409   3   -15.19210000 -6.08466000 -3.04931000 
      410   2   -16.73940000 -4.55442000 -1.54212000 
      411   3   -15.22150000 -3.03708000 -0.00082804 
      412   2   -16.76270000 -1.50708000  1.50708000 
      413   3   -15.22150000  0.00082804  3.03708000 
      414   2   -16.73940000  1.54212000  4.55442000 
      415   3   -15.19210000  3.04931000  6.08466000 
      416   2   -16.59250000  4.65320000  7.65834000 
      417   1   -15.08040000  6.07291000  9.10435000 
      418   2   -16.45870000  7.59059000  10.56470000 
      419   1   -14.98410000  9.03732000  12.03190000 
      420   2   -16.41860000  10.52080000  13.47690000 
      421   1   -14.92540000  11.96310000  14.92540000 
      422   1   -11.95620000 -17.84570000 -11.95620000 
      423   2   -13.47690000 -16.41860000 -10.52080000 
      424   1   -12.03190000 -14.98410000 -9.03732000 
      425   2   -13.53610000 -13.53610000 -7.60136000 
      426   1   -12.12340000 -12.12340000 -6.06577000 
      427   2   -13.65790000 -10.66700000 -4.67298000 
      428   3   -12.17310000 -9.14806000 -3.08607000 
      429   2   -13.65240000 -7.60303000 -1.54338000 
      430   3   -12.15490000 -6.08490000  0.00167232 
      431   2   -13.68210000 -4.55547000  1.50946000 
      432   3   -12.16700000 -3.03563000  3.03563000 
      433   2   -13.68210000 -1.50946000  4.55547000 
      434   3   -12.15490000 -0.00167233  6.08490000 
      435   2   -13.65240000  1.54338000  7.60303000 
      436   3   -12.17310000  3.08607000  9.14806000 
      437   2   -13.65790000  4.67298000  10.66700000 
      438   1   -12.12340000  6.06577000  12.12340000 
      439   2   -13.53610000  7.60136000  13.53610000 
      440   1   -12.03190000  9.03732000  14.98410000 
      441   2   -13.47690000  10.52080000  16.41860000 
      442   1   -11.95620000  11.95620000  17.84570000 
      443   2   -10.48570000 -19.29040000 -10.48570000 
      444   1   -9.01613000 -17.86430000 -9.01613000 
      445   2   -10.56470000 -16.45870000 -7.59059000 
      446   1   -9.10435000 -15.08040000 -6.07291000 
      447   2   -10.66700000 -13.65790000 -4.67298000 
      448   3   -9.14806000 -12.17310000 -3.08607000 
      449   2   -10.64250000 -10.64250000 -1.54507000 
      450   3   -9.13225000 -9.13225000 -0.00038246 
      451   2   -10.65160000 -7.61655000  1.53290000 
      452   3   -9.13092000 -6.08403000  3.04311000 
      453   2   -10.65510000 -4.56118000  4.56118000 
      454   3   -9.13092000 -3.04311000  6.08403000 
      455   2   -10.65160000 -1.53290000  7.61655000 
      456   3   -9.13225000  0.00038246  9.13225000 
      457   2   -10.64250000  1.54507000  10.64250000 
      458   3   -9.14806000  3.08607000  12.17310000 
      459   2   -10.66700000  4.67298000  13.65790000 
      460   1   -9.10435000  6.07291000  15.08040000 
      461   2   -10.56470000  7.59059000  16.45870000 
      462   1   -9.01613000  9.01613000  17.86430000 
      463   2   -10.48570000  10.48570000  19.29040000 
      464   1   -6.00027000 -20.72450000 -8.97645000 
      465   2   -7.55291000 -19.32700000 -7.55291000 
      466   1   -6.05807000 -17.95700000 -6.05807000 
      467   2   -7.65834000 -16.59250000 -4.65320000 
      468   3   -6.08466000 -15.19210000 -3.04931000 
      469   2   -7.60303000 -13.65240000 -1.54338000 
      470   3   -6.08490000 -12.15490000  0.00167233 
      471   2   -7.61655000 -10.65160000  1.53290000 
      472   3   -6.08403000 -9.13092000  3.04311000 
      473   2   -7.60580000 -7.60580000  4.55867000 
      474   3   -6.08724000 -6.08724000  6.08724000 
      475   2   -7.60580000 -4.55867000  7.60580000 
      476   3   -6.08403000 -3.04311000  9.13092000 
      477   2   -7.61655000 -1.53290000  10.65160000 
      478   3   -6.08490000 -0.00167233  12.15490000 
      479   2   -7.60303000  1.54338000  13.65240000 
      480   3   -6.08466000  3.04931000  15.19210000 
      481   2   -7.65834000  4.65320000  16.59250000 
      482   1   -6.05807000  6.05807000  17.95700000 
      483   2   -7.55291000  7.55291000  19.32700000 
      484   1   -6.00027000  8.97645000  20.72450000 
      485   2   -4.51853000 -22.13660000 -7.48676000 
      486   1   -3.01730000 -20.74770000 -6.00877000 
      487   2   -4.56502000 -19.36480000 -4.56502000 
      488   1   -3.02693000 -18.08250000 -3.02693000 
      489   2   -4.55442000 -16.73940000 -1.54212000 
      490   3   -3.03708000 -15.22150000 -0.00082804 
      491   2   -4.55547000 -13.68210000  1.50946000 
      492   3   -3.03563000 -12.16700000  3.03563000 
      493   2   -4.56118000 -10.65510000  4.56118000 
      494   3   -3.04311000 -9.13092000  6.08403000 
      495   2   -4.55867000 -7.60580000  7.60580000 
      496   3   -3.04311000 -6.08403000  9.13092000 
      497   2   -4.56118000 -4.56118000  10.65510000 
      498   3   -3.03563000 -3.03563000  12.16700000 
      499   2   -4.55547000 -1.50946000  13.68210000 
      500   3   -3.03708000  0.00082804  15.22150000 
      501   2   -4.55442000  1.54212000  16.73940000 
      502   1   -3.02693000  3.02693000  18.08250000 
      503   2   -4.56502000  4.56502000  19.36480000 
      504   1   -3.01730000  6.00877000  20.74770000 
      505   2   -4.51853000  7.48676000  22.13660000 
      506   1   -0.00781285 -23.53640000 -5.96873000 
      507   2   -1.52947000 -22.14510000 -4.50812000 
      508   1   -0.00301256 -20.80190000 -3.00765000 
      509   2   -1.51743000 -19.43830000 -1.51743000 
      510   1   -0.00000000 -18.10570000 -0.00000000 
      511   2   -1.50708000 -16.76270000  1.50708000 
      512   3    0.00082804 -15.22150000  3.03708000 
      513   2   -1.50946000 -13.68210000  4.55547000 
      514   3   -0.00167233 -12.15490000  6.08490000 
      515   2   -1.53290000 -10.65160000  7.61655000 
      516   3    0.00038246 -9.13225000  9.13225000 
      517   2   -1.53290000 -7.61655000  10.65160000 
      518   3   -0.00167233 -6.08490000  12.15490000 
      519   2   -1.50946000 -4.55547000  13.68210000 
      520   3    0.00082804 -3.03708000  15.22150000 
      521   2   -1.50708000 -1.50708000  16.76270000 
      522   1   -0.00000000 -0.00000000  18.10570000 
      523   2   -1.51743000  1.51743000  19.43830000 
      524   1   -0.00301256  3.00765000  20.80190000 
      525   2   -1.52947000  4.50812000  22.14510000 
      526   1   -0.00781285  5.96873000  23.53640000 
      527   1    2.98489000 -23.54740000 -2.98489000 
      528   2    1.49002000 -22.16710000 -1.49002000 
      529   1    3.00765000 -20.80190000  0.00301256 
      530   2    1.51743000 -19.43830000  1.51743000 
      531   1    3.02693000 -18.08250000  3.02693000 
      532   2    1.54212000 -16.73940000  4.55442000 
      533   3    3.04931000 -15.19210000  6.08466000 
      534   2    1.54338000 -13.65240000  7.60303000 
      535   3    3.08607000 -12.17310000  9.14806000 
      536   2    1.54507000 -10.64250000  10.64250000 
      537   3    3.08607000 -9.14806000  12.17310000 
      538   2    1.54338000 -7.60303000  13.65240000 
      539   3    3.04931000 -6.08466000  15.19210000 
      540   2    1.54212000 -4.55442000  16.73940000 
      541   1    3.02693000 -3.02693000  18.08250000 
      542   2    1.51743000 -1.51743000  19.43830000 
      543   1    3.00765000 -0.00301256  20.80190000 
      544   2    1.49002000  1.49002000  22.16710000 
      545   1    2.98489000  2.98489000  23.54740000 
      546   1    5.96873000 -23.53640000  0.00781285 
      547   2    4.50812000 -22.14510000  1.52947000 