LAMMPS configuration data file

  5813 atoms

  5 atom types

  -49.607998  49.607998  xlo xhi
  -49.607998  49.607998  ylo yhi
  -34.851799  34.851799  zlo zhi

 Masses

  1   32.065
  2   112.411
  3   78.960
  4   1.000
  5   1.000

 Atoms

        1   1   -27.99849798 -27.99849798  7.59021945 
        2   2   -29.44289788 -26.49419809  9.04379935 
        3   1   -27.95809798 -25.01659820  10.49179924 
        4   2   -29.39569788 -23.52239830  11.95329914 
        5   1   -27.91589798 -22.04779841  13.39929903 
        6   2   -26.49419809 -29.44289788  9.04379935 
        7   1   -25.01659820 -27.95809798  10.49179924 
        8   2   -26.46199809 -26.46199809  11.94689914 
        9   1   -24.98449820 -24.98449820  13.39339904 
       10   2   -26.42749809 -23.49669831  14.85179893 
       11   2   -23.52239830 -29.39569788  11.95329914 
       12   1   -22.04779841 -27.91589798  13.39929903 
       13   2   -23.49669831 -26.42749809  14.85179893 
       14   3   -28.07179798 -28.07179798  1.53297989 
       15   2   -29.54679787 -26.56189808  3.06005978 
       16   3   -28.04949798 -25.07879819  4.59659967 
       17   2   -29.50489787 -23.57129830  6.13790956 
       18   1   -28.00979798 -22.09729841  7.58076945 
       19   2   -29.45609787 -20.60059851  9.03336935 
       20   1   -27.96639798 -19.13009862  10.48159924 
       21   2   -29.40369788 -17.64039873  11.94399914 
       22   1   -27.92009798 -16.17129883  13.39079903 
       23   2   -26.56189808 -29.54679787  3.06005978 
       24   3   -25.07879819 -28.04949798  4.59659967 
       25   2   -26.53589808 -26.53589808  6.13540956 
       26   1   -25.05269819 -25.05269819  7.57937945 
       27   2   -26.50629809 -23.55339830  9.02693935 
       28   1   -25.02359819 -22.07729841  10.47619924 
       29   2   -26.46999809 -20.58489851  11.92979914 
       30   1   -24.98879819 -19.11249862  13.37779903 
       31   2   -26.43079809 -17.62689873  14.83779893 
       32   2   -23.57129830 -29.50489787  6.13790956 
       33   1   -22.09729841 -28.00979798  7.58076945 
       34   2   -23.55339830 -26.50629809  9.02693935 
       35   1   -22.07729841 -25.02359819  10.47619924 
       36   2   -23.52879830 -23.52879830  11.92649914 
       37   1   -22.05219841 -22.05219841  13.37509903 
       38   2   -23.50029830 -20.56489851  14.82799893 
       39   2   -20.60059851 -29.45609787  9.03336935 
       40   1   -19.13009862 -27.96639798  10.48159924 
       41   2   -20.58489851 -26.46999809  11.92979914 
       42   1   -19.11249862 -24.98879819  13.37779903 
       43   2   -20.56489851 -23.50029830  14.82799893 
       44   2   -17.64039873 -29.40369788  11.94399914 
       45   1   -16.17129883 -27.92009798  13.39079903 
       46   2   -17.62689873 -26.43079809  14.83779893 
       47   3   -28.04799798 -28.04799798 -4.58838967 
       48   2   -29.56229786 -26.58229808 -3.05652978 
       49   3   -28.07949797 -25.09689819 -1.52634989 
       50   2   -29.58149786 -23.61279829 -0.00041684 
       51   3   -28.08619797 -22.13049840  1.53056989 
       52   2   -29.56639787 -20.63529851  3.05874978 
       53   3   -28.06299798 -19.16339862  4.59541967 
       54   2   -29.52049787 -17.66469872  6.13616956 
       55   1   -28.01969798 -16.19849883  7.57827945 
       56   2   -29.46619787 -14.70649894  9.03156935 
       57   1   -27.97209798 -13.24189905  10.47959924 
       58   2   -29.40799788 -11.75579915  11.94339914 
       59   1   -27.91959798 -10.29189926  13.38959904 
       60   2   -26.58229808 -29.56229786 -3.05652978 
       61   3   -25.09689819 -28.07949797 -1.52634989 
       62   2   -26.58819808 -26.58819808 -0.00050802 
       63   3   -25.10189819 -25.10189819  1.53095989 
       64   2   -26.57799808 -23.60219830  3.05836978 
       65   3   -25.08879819 -22.12279840  4.59607967 
       66   2   -26.55109809 -20.62349851  6.13295956 
       67   1   -25.06159819 -19.15079862  7.57599945 
       68   2   -26.51719808 -17.65849873  9.02245935 
       69   1   -25.02989819 -16.18879883  10.47079924 
       70   2   -26.47669809 -14.70119894  11.92539914 
       71   1   -24.99119820 -13.23439904  13.37339904 
       72   2   -26.43169809 -11.75199915  14.83509893 
       73   2   -23.61279829 -29.58149786 -0.00041684 
       74   3   -22.13049840 -28.08619797  1.53056989 
       75   2   -23.60219830 -26.57799808  3.05836978 
       76   3   -22.12279840 -25.08879819  4.59607967 
       77   2   -23.58539830 -23.58539830  6.13372956 
       78   1   -22.10509840 -22.10509840  7.57734945 
       79   2   -23.56459830 -20.61079851  9.02101935 
       80   1   -22.08329840 -19.13589862  10.46939924 
       81   2   -23.53609830 -17.64639872  11.91789914 
       82   1   -22.05519841 -16.17479883  13.36639903 
       83   2   -23.50289830 -14.69129894  14.82129893 
       84   2   -20.63529851 -29.56639787  3.05874978 
       85   3   -19.16339862 -28.06299798  4.59541967 
       86   2   -20.62349851 -26.55109809  6.13295956 
       87   1   -19.15079862 -25.06159819  7.57599945 
       88   2   -20.61079851 -23.56459830  9.02101935 
       89   1   -19.13589862 -22.08329840  10.46939924 
       90   2   -20.59179851 -20.59179851  11.91699914 
       91   1   -19.11519862 -19.11519862  13.36559903 
       92   2   -20.56859852 -17.62959873  14.81609893 
       93   2   -17.66469872 -29.52049787  6.13616956 
       94   1   -16.19849883 -28.01969798  7.57827945 
       95   2   -17.65849873 -26.51719808  9.02245935 
       96   1   -16.18879883 -25.02989819  10.47079924 
       97   2   -17.64639872 -23.53609830  11.91789914 
       98   1   -16.17479883 -22.05519841  13.36639903 
       99   2   -17.62959873 -20.56859852  14.81609893 
      100   2   -14.70649894 -29.46619787  9.03156935 
      101   1   -13.24189905 -27.97209798  10.47959924 
      102   2   -14.70119894 -26.47669809  11.92539914 
      103   1   -13.23439904 -24.99119820  13.37339904 
      104   2   -14.69129894 -23.50289830  14.82129893 
      105   2   -11.75579915 -29.40799788  11.94339914 
      106   1   -10.29189926 -27.91959798  13.38959904 
      107   2   -11.75199915 -26.43169809  14.83509893 
      108   1   -27.96569798 -27.96569798 -10.49499924 
      109   2   -29.46799787 -26.52509809 -9.03829935 
      110   1   -28.01189798 -25.05629819 -7.57841945 
      111   2   -29.52179787 -23.60159830 -6.13748956 
      112   3   -28.05819797 -22.11839841 -4.59379967 
      113   2   -29.57339786 -20.65429851 -3.06157978 
      114   3   -28.09389797 -19.16939862 -1.53038989 
      115   2   -29.59779786 -17.69229872 -0.00224566 
      116   3   -28.09989797 -16.21639883  1.52974989 
      117   2   -29.58029786 -14.72639894  3.05890978 
      118   3   -28.07179798 -13.26089904  4.59538967 
      119   2   -29.52819787 -11.76629915  6.13746956 
      120   1   -28.02379798 -10.30449926  7.57926945 
      121   2   -29.46899787 -8.81655936  9.03407935 
      122   1   -27.97059798 -7.35620947  10.48189924 
      123   2   -29.40609788 -5.87285958  11.94599914 
      124   1   -27.91519799 -4.41102968  13.39059903 
      125   2   -26.52509809 -29.46799787 -9.03829935 
      126   1   -25.05629819 -28.01189798 -7.57841945 
      127   2   -26.55869808 -26.55869808 -6.13417955 
      128   3   -25.08509819 -25.08509819 -4.59206967 
      129   2   -26.58789808 -23.61549829 -3.06212978 
      130   3   -25.10779819 -22.13399840 -1.53065989 
      131   2   -26.60149808 -20.65209851 -0.00300069 
      132   3   -25.11339819 -19.17459862  1.53065989 
      133   2   -26.59249808 -17.68479872  3.05887978 
      134   3   -25.09819819 -16.21359883  4.59581967 
      135   2   -26.56119808 -14.72079894  6.13361956 
      136   1   -25.06769819 -13.25309904  7.57567945 
      137   2   -26.52299809 -11.76539915  9.02363935 
      138   1   -25.03149819 -10.30139926  10.47219925 
      139   2   -26.47649809 -8.81711936  11.92759914 
      140   1   -24.98709820 -7.35401947  13.37399903 
      141   2   -26.42849809 -5.87439958  14.83569893 
      142   2   -23.60159830 -29.52179787 -6.13748956 
      143   3   -22.11839841 -28.05819797 -4.59379967 
      144   2   -23.61549829 -26.58789808 -3.06212978 
      145   3   -22.13399840 -25.10779819 -1.53065989 
      146   2   -23.62169829 -23.62169829 -0.00313093 
      147   3   -22.13939840 -22.13939840  1.53051989 
      148   2   -23.61569830 -20.64709851  3.05999978 
      149   3   -22.13069840 -19.17039862  4.59778967 
      150   2   -23.59699830 -17.67729873  6.13362956 
      151   1   -22.11159840 -16.20449883  7.57575946 
      152   2   -23.57219830 -14.71589894  9.01955935 
      153   1   -22.08689841 -13.24679905  10.46729924 
      154   2   -23.53909830 -11.76229915  11.91779914 
      155   1   -22.05379841 -10.29549926  13.36479903 
      156   2   -23.50109830 -8.81538936  14.82079893 
      157   2   -20.65429851 -29.57339786 -3.06157978 
      158   3   -19.16939862 -28.09389797 -1.53038989 
      159   2   -20.65209851 -26.60149808 -0.00300069 
      160   3   -19.17459862 -25.11339819  1.53065989 
      161   2   -20.64709851 -23.61569830  3.05999978 
      162   3   -19.17039862 -22.13069840  4.59778967 
      163   2   -20.63609851 -20.63609851  6.13513956 
      164   1   -19.15759862 -19.15759862  7.57631945 
      165   2   -20.61979851 -17.66809873  9.01919935 
      166   1   -19.13969862 -16.19319883  10.46579924 
      167   2   -20.59699851 -14.70719894  11.91279914 
      168   1   -19.11629862 -13.23619904  13.36049904 
      169   2   -20.56869851 -11.75489915  14.81289893 
      170   2   -17.69229872 -29.59779786 -0.00224566 
      171   3   -16.21639883 -28.09989797  1.52974989 
      172   2   -17.68479872 -26.59249808  3.05887978 
      173   3   -16.21359883 -25.09819819  4.59581967 
      174   2   -17.67729873 -23.59699830  6.13362956 
      175   1   -16.20449883 -22.11159840  7.57575946 
      176   2   -17.66809873 -20.61979851  9.01919935 
      177   1   -16.19319883 -19.13969862  10.46579924 
      178   2   -17.65199873 -17.65199873  11.91229914 
      179   1   -16.17639883 -16.17639883  13.35989903 
      180   2   -17.63259873 -14.69439894  14.81019893 
      181   2   -14.72639894 -29.58029786  3.05890978 
      182   3   -13.26089904 -28.07179798  4.59538967 
      183   2   -14.72079894 -26.56119808  6.13361956 
      184   1   -13.25309904 -25.06769819  7.57567945 
      185   2   -14.71589894 -23.57219830  9.01955935 
      186   1   -13.24679905 -22.08689841  10.46729924 
      187   2   -14.70719894 -20.59699851  11.91279914 
      188   1   -13.23619904 -19.11629862  13.36049904 
      189   2   -14.69439894 -17.63259873  14.81019893 
      190   2   -11.76629915 -29.52819787  6.13746956 
      191   1   -10.30449926 -28.02379798  7.57926945 
      192   2   -11.76539915 -26.52299809  9.02363935 
      193   1   -10.30139926 -25.03149819  10.47219925 
      194   2   -11.76229915 -23.53909830  11.91779914 
      195   1   -10.29549926 -22.05379841  13.36479903 
      196   2   -11.75489915 -20.56869851  14.81289893 
      197   2   -8.81655936 -29.46899787  9.03407935 
      198   1   -7.35620947 -27.97059798  10.48189924 
      199   2   -8.81711936 -26.47649809  11.92759914 
      200   1   -7.35401947 -24.98709820  13.37399903 
      201   2   -8.81538936 -23.50109830  14.82079893 
      202   2   -5.87285958 -29.40609788  11.94599914 
      203   1   -4.41102968 -27.91519799  13.39059903 
      204   2   -5.87439958 -26.42849809  14.83569893 
      205   1   -27.92109798 -24.99189819 -13.40569903 
      206   2   -29.41379788 -23.54699830 -11.95209914 
      207   1   -27.96779798 -22.08109841 -10.48399924 
      208   2   -29.46909787 -20.62879851 -9.03542935 
      209   1   -28.01799798 -19.15149862 -7.57965945 
      210   2   -29.52739787 -17.69429872 -6.13988956 
      211   3   -28.06769797 -16.20839883 -4.59648967 
      212   2   -29.58289787 -14.74539893 -3.06360978 
      213   3   -28.10329797 -13.26259904 -1.53142989 
      214   2   -29.60699786 -11.78749915 -0.00243040 
      215   3   -28.10549797 -10.31519926  1.52935989 
      216   2   -29.58449786 -8.82879936  3.06036978 
      217   3   -28.07229797 -7.36686947  4.59599967 
      218   2   -29.52949787 -5.87626957  6.13973956 
      219   1   -28.02299798 -4.41727968  7.58131945 
      220   2   -29.46829787 -2.93135979  9.03653935 
      221   1   -27.96879798 -1.47159989  10.48269924 
      222   2   -29.40589788  0.00930115  11.94679914 
      223   1   -27.91519799  1.47064990  13.39079903 
      224   1   -24.99189819 -27.92109798 -13.40569903 
      225   2   -26.48429809 -26.48429809 -11.94359914 
      226   1   -25.02649819 -25.02649819 -10.47879924 
      227   2   -26.52449808 -23.57669830 -9.02794935 
      228   1   -25.06149819 -22.10549840 -7.57728946 
      229   2   -26.56179808 -20.64449851 -6.13770956 
      230   3   -25.09389819 -19.16529862 -4.59712967 
      231   2   -26.59599808 -17.69759872 -3.06503978 
      232   3   -25.11769819 -16.21809883 -1.53279989 
      233   2   -26.61179808 -14.74159893 -0.00295996 
      234   3   -25.12169819 -13.26749904  1.53016989 
      235   2   -26.59999808 -11.78219915  3.06053978 
      236   3   -25.10089819 -10.31519926  4.59603967 
      237   2   -26.56409808 -8.82708936  6.13539956 
      238   1   -25.06769819 -7.36321947  7.57746945 
      239   2   -26.52249808 -5.87866958  9.02576935 
      240   1   -25.02819819 -4.41634968  10.47299924 
      241   2   -26.47439809 -2.93412979  11.92779914 
      242   1   -24.98469820 -1.47218989  13.37359903 
      243   2   -26.42769809  0.00604477  14.83439893 
      244   2   -23.54699830 -29.41379788 -11.95209914 
      245   1   -22.08109841 -27.96779798 -10.48399924 
      246   2   -23.57669830 -26.52449808 -9.02794935 
      247   1   -22.10549840 -25.06149819 -7.57728946 
      248   2   -23.60149830 -23.60149830 -6.13695956 
      249   3   -22.12659840 -22.12659840 -4.59863967 
      250   2   -23.62149830 -20.65589851 -3.06633978 
      251   3   -22.14339840 -19.17759862 -1.53376989 
      252   2   -23.63169829 -17.69879872 -0.00378556 
      253   3   -22.14789840 -16.22319883  1.53082989 
      254   2   -23.62479829 -14.73699893  3.06119978 
      255   3   -22.13599840 -13.26589904  4.59825967 
      256   2   -23.60209830 -11.77799915  6.13557956 
      257   1   -22.11429840 -10.30959925  7.57754945 
      258   2   -23.57409830 -8.82583936  9.02280935 
      259   1   -22.08479840 -7.36028947  10.46919924 
      260   2   -23.53689830 -5.87841958  11.91929914 
      261   1   -22.04969841 -4.41403968  13.36539904 
      262   2   -23.49879830 -2.93537979  14.81989893 
      263   2   -20.62879851 -29.46909787 -9.03542935 
      264   1   -19.15149862 -28.01799798 -7.57965945 
      265   2   -20.64449851 -26.56179808 -6.13770956 
      266   3   -19.16529862 -25.09389819 -4.59712967 
      267   2   -20.65589851 -23.62149830 -3.06633978 
      268   3   -19.17759862 -22.14339840 -1.53376989 
      269   2   -20.66049851 -20.66049851 -0.00352938 
      270   3   -19.18159861 -19.18159861  1.53187989 
      271   2   -20.65729851 -17.69549872  3.06248978 
      272   3   -19.17609862 -16.21959883  4.59966967 
      273   2   -20.64319851 -14.73119894  6.13645956 
      274   1   -19.16109862 -13.25839904  7.57661945 
      275   2   -20.62379851 -11.77399915  9.02053935 
      276   1   -19.14019862 -10.30419926  10.46639925 
      277   2   -20.59639851 -8.82231936  11.91469914 
      278   1   -19.11209862 -7.35504947  13.36079904 
      279   2   -20.56609851 -5.87678957  14.81299893 
      280   2   -17.69429872 -29.52739787 -6.13988956 
      281   3   -16.20839883 -28.06769797 -4.59648967 
      282   2   -17.69759872 -26.59599808 -3.06503978 
      283   3   -16.21809883 -25.11769819 -1.53279989 
      284   2   -17.69879872 -23.63169829 -0.00378556 
      285   3   -16.22319883 -22.14789840  1.53082989 
      286   2   -17.69549872 -20.65729851  3.06248978 
      287   3   -16.21959883 -19.17609862  4.59966967 
      288   2   -17.68689872 -17.68689872  6.13708956 
      289   1   -16.20909883 -16.20909883  7.57647945 
      290   2   -17.67359872 -14.72319894  9.01926935 
      291   1   -16.19439883 -13.24899904  10.46449925 
      292   2   -17.65429873 -11.76679915  11.91099914 
      293   1   -16.17469883 -10.29619925  13.35709903 
      294   2   -17.63059873 -8.81821937  14.80889893 
      295   2   -14.74539893 -29.58289787 -3.06360978 
      296   3   -13.26259904 -28.10329797 -1.53142989 
      297   2   -14.74159893 -26.61179808 -0.00295996 
      298   3   -13.26749904 -25.12169819  1.53016989 
      299   2   -14.73699893 -23.62479829  3.06119978 
      300   3   -13.26589904 -22.13599840  4.59825967 
      301   2   -14.73119894 -20.64319851  6.13645956 
      302   1   -13.25839904 -19.16109862  7.57661945 
      303   2   -14.72319894 -17.67359872  9.01926935 
      304   1   -13.24899904 -16.19439883  10.46449925 
      305   2   -14.71129894 -14.71129894  11.90999914 
      306   1   -13.23649905 -13.23649905  13.35599903 
      307   2   -14.69509894 -11.75759915  14.80629893 
      308   2   -11.78749915 -29.60699786 -0.00243040 
      309   3   -10.31519926 -28.10549797  1.52935989 
      310   2   -11.78219915 -26.59999808  3.06053978 
      311   3   -10.31519926 -25.10089819  4.59603967 
      312   2   -11.77799915 -23.60209830  6.13557956 
      313   1   -10.30959925 -22.11429840  7.57754945 
      314   2   -11.77399915 -20.62379851  9.02053935 
      315   1   -10.30419926 -19.14019862  10.46639925 
      316   2   -11.76679915 -17.65429873  11.91099914 
      317   1   -10.29619925 -16.17469883  13.35709903 
      318   2   -11.75759915 -14.69509894  14.80629893 
      319   2   -8.82879936 -29.58449786  3.06036978 
      320   3   -7.36686947 -28.07229797  4.59599967 
      321   2   -8.82708936 -26.56409808  6.13539956 
      322   1   -7.36321947 -25.06769819  7.57746945 
      323   2   -8.82583936 -23.57409830  9.02280935 
      324   1   -7.36028947 -22.08479840  10.46919924 
      325   2   -8.82231936 -20.59639851  11.91469914 
      326   1   -7.35504947 -19.11209862  13.36079904 
      327   2   -8.81821937 -17.63059873  14.80889893 
      328   2   -5.87626957 -29.52949787  6.13973956 
      329   1   -4.41727968 -28.02299798  7.58131945 
      330   2   -5.87866958 -26.52249808  9.02576935 
      331   1   -4.41634968 -25.02819819  10.47299924 
      332   2   -5.87841958 -23.53689830  11.91929914 
      333   1   -4.41403968 -22.04969841  13.36539904 
      334   2   -5.87678957 -20.56609851  14.81299893 
      335   2   -2.93135979 -29.46829787  9.03653935 
      336   1   -1.47159989 -27.96879798  10.48269924 
      337   2   -2.93412979 -26.47439809  11.92779914 
      338   1   -1.47218989 -24.98469820  13.37359903 
      339   2   -2.93537979 -23.49879830  14.81989893 
      340   2    0.00930115 -29.40589788  11.94679914 
      341   1    1.47064990 -27.91519799  13.39079903 
      342   2    0.00604477 -26.42769809  14.83439893 
      343   1   -27.92119798 -19.11499862 -13.39439903 
      344   2   -29.41389788 -17.66219873 -11.94669914 
      345   1   -27.97079798 -16.18939883 -10.48179924 
      346   2   -29.47139787 -14.73289894 -9.03529935 
      347   1   -28.02209797 -13.25269904 -7.58032945 
      348   2   -29.53099787 -11.79459915 -6.14102956 
      349   3   -28.07159797 -10.30879926 -4.59699967 
      350   2   -29.58599787 -8.84710936 -3.06348978 
      351   3   -28.10589797 -7.36566947 -1.53083989 
      352   2   -29.60799786 -5.89180958 -0.00040507 
      353   3   -28.10469797 -4.42142968  1.53137989 
      354   2   -29.58509786 -2.93730979  3.06303978 
      355   3   -28.07309797 -1.47553990  4.59831967 
      356   2   -29.53039787  0.01300450  6.14267956 
      357   1   -28.02229798  1.47196989  7.58229945 
      358   2   -29.46869787  2.95538979  9.03742935 
      359   1   -27.96929798  4.41470968  10.48309924 
      360   2   -29.40809787  5.89400957  11.94709914 
      361   1   -27.91799799  7.35370947  13.39239903 
      362   2   -26.44249809 -23.51349830 -14.85019893 
      363   1   -24.99069819 -22.05449841 -13.38269904 
      364   2   -26.48359809 -20.60469851 -11.93219914 
      365   1   -25.02879819 -19.13579862 -10.47459924 
      366   2   -26.52579809 -17.67959872 -9.02709935 
      367   1   -25.06589819 -16.20289883 -7.57831945 
      368   2   -26.56549808 -14.74099894 -6.13844955 
      369   3   -25.09859819 -13.26089904 -4.59880967 
      370   2   -26.60069808 -11.79559915 -3.06542978 
      371   3   -25.12249819 -10.31639926 -1.53275989 
      372   2   -26.61529808 -8.84238936 -0.00182832 
      373   3   -25.12209819 -7.37118947  1.53072989 
      374   2   -26.59919808 -5.88795957  3.06225978 
      375   3   -25.09989819 -4.42225968  4.59791967 
      376   2   -26.56479808 -2.93701979  6.13789956 
      377   1   -25.06689819 -1.47364989  7.57862945 
      378   2   -26.52279809  0.00911041  9.02664935 
      379   1   -25.02809819  1.47040989  10.47319924 
      380   2   -26.47599809  2.95046979  11.92829914 
      381   1   -24.98699820  4.41150968  13.37489903 
      382   2   -26.43169809  5.88724958  14.83669893 
      383   2   -23.51349830 -26.44249809 -14.85019893 
      384   1   -22.05449841 -24.99069819 -13.38269904 
      385   2   -23.54609830 -23.54609830 -11.92739914 
      386   1   -22.08339841 -22.08339841 -10.47279924 
      387   2   -23.57679830 -20.62799851 -9.02507935 
      388   1   -22.11029841 -19.15629862 -7.57918946 
      389   2   -23.60389830 -17.69259873 -6.14027956 
      390   3   -22.13239840 -16.21529883 -4.60244967 
      391   2   -23.62659829 -14.74699893 -3.06789978 
      392   3   -22.14939840 -13.26949904 -1.53472989 
      393   2   -23.63739829 -11.79399915 -0.00286866 
      394   3   -22.15079840 -10.32089926  1.53087989 
      395   2   -23.62639830 -8.83884936  3.06301978 
      396   3   -22.13539840 -7.37043947  4.59983967 
      397   2   -23.60259830 -5.88667957  6.13772956 
      398   1   -22.11279840 -4.42021968  7.57836945 
      399   2   -23.57309830 -2.93829979  9.02304935 
      400   1   -22.08329840 -1.47391989  10.46899924 
      401   2   -23.53739830  0.00584836  11.91829914 
      402   1   -22.05109841  1.46944989  13.36469904 
      403   2   -23.50119830  2.94602979  14.82009893 
      404   1   -19.11499862 -27.92119798 -13.39439903 
      405   2   -20.60469851 -26.48359809 -11.93219914 
      406   1   -19.13579862 -25.02879819 -10.47459924 
      407   2   -20.62799851 -23.57679830 -9.02507935 
      408   1   -19.15629862 -22.11029841 -7.57918946 
      409   2   -20.64629851 -20.64629851 -6.14173956 
      410   3   -19.17259862 -19.17259862 -4.60312967 
      411   2   -20.66089851 -17.70189872 -3.07008978 
      412   3   -19.18409862 -16.22579883 -1.53693989 
      413   2   -20.66729851 -14.74879894 -0.00401655 
      414   3   -19.18689861 -13.27349904  1.53105989 
      415   2   -20.66199851 -11.79189915  3.06362978 
      416   3   -19.17799862 -10.31969925  4.60018967 
      417   2   -20.64499851 -8.83633936  6.13919956 
      418   1   -19.16049861 -7.36637947  7.57849945 
      419   2   -20.62359851 -5.88571958  9.02204935 
      420   1   -19.13759862 -4.41830968  10.46689924 
      421   2   -20.59549851 -2.93836979  11.91369914 
      422   1   -19.11179862 -1.47249989  13.35959904 
      423   2   -20.56709852  0.00450137  14.81049893 
      424   2   -17.66219873 -29.41389788 -11.94669914 
      425   1   -16.18939883 -27.97079798 -10.48179924 
      426   2   -17.67959872 -26.52579809 -9.02709935 
      427   1   -16.20289883 -25.06589819 -7.57831945 
      428   2   -17.69259873 -23.60389830 -6.14027956 
      429   3   -16.21529883 -22.13239840 -4.60244967 
      430   2   -17.70189872 -20.66089851 -3.07008978 
      431   3   -16.22579883 -19.18409862 -1.53693989 
      432   2   -17.70559872 -17.70559872 -0.00420578 
      433   3   -16.22889883 -16.22889883  1.53146989 
      434   2   -17.70229872 -14.74579893  3.06404978 
      435   3   -16.22319883 -13.27079904  4.60031967 
      436   2   -17.69019872 -11.78649915  6.13838956 
      437   1   -16.20999883 -10.31279926  7.57684945 
      438   2   -17.67459873 -8.83211936  9.02105935 
      439   1   -16.19239883 -7.36146947  10.46479925 
      440   2   -17.65229873 -5.88208958  11.91159914 
      441   1   -16.17209883 -4.41391968  13.35719903 
      442   2   -17.63069873 -2.93753979  14.80699893 
      443   2   -14.73289894 -29.47139787 -9.03529935 
      444   1   -13.25269904 -28.02209797 -7.58032945 
      445   2   -14.74099894 -26.56549808 -6.13844955 
      446   3   -13.26089904 -25.09859819 -4.59880967 
      447   2   -14.74699893 -23.62659829 -3.06789978 
      448   3   -13.26949904 -22.14939840 -1.53472989 
      449   2   -14.74879894 -20.66729851 -0.00401655 
      450   3   -13.27349904 -19.18689861  1.53105989 
      451   2   -14.74579893 -17.70229872  3.06404978 
      452   3   -13.27079904 -16.22319883  4.60031967 
      453   2   -14.73719894 -14.73719894  6.13835956 
      454   1   -13.26029904 -13.26029904  7.57595945 
      455   2   -14.72529894 -11.77809915  9.01981935 
      456   1   -13.24769904 -10.30419926  10.46379925 
      457   2   -14.71039894 -8.82578936  11.90989914 
      458   1   -13.23349904 -7.35488947  13.35559903 
      459   2   -14.69339894 -5.87865958  14.80559893 
      460   2   -11.79459915 -29.53099787 -6.14102956 
      461   3   -10.30879926 -28.07159797 -4.59699967 
      462   2   -11.79559915 -26.60069808 -3.06542978 
      463   3   -10.31639926 -25.12249819 -1.53275989 
      464   2   -11.79399915 -23.63739829 -0.00286866 
      465   3   -10.32089926 -22.15079840  1.53087989 
      466   2   -11.79189915 -20.66199851  3.06362978 
      467   3   -10.31969925 -19.17799862  4.60018967 
      468   2   -11.78649915 -17.69019872  6.13838956 
      469   1   -10.31279926 -16.20999883  7.57684945 
      470   2   -11.77809915 -14.72529894  9.01981935 
      471   1   -10.30419926 -13.24769904  10.46379925 
      472   2   -11.76839915 -11.76839915  11.90959914 
      473   1   -10.29469925 -10.29469925  13.35579904 
      474   2   -11.75649915 -8.81854937  14.80509893 
      475   2   -8.84710936 -29.58599787 -3.06348978 
      476   3   -7.36566947 -28.10589797 -1.53083989 
      477   2   -8.84238936 -26.61529808 -0.00182832 
      478   3   -7.37118947 -25.12209819  1.53072989 
      479   2   -8.83884936 -23.62639830  3.06301978 
      480   3   -7.37043947 -22.13539840  4.59983967 
      481   2   -8.83633936 -20.64499851  6.13919956 
      482   1   -7.36637947 -19.16049861  7.57849945 
      483   2   -8.83211936 -17.67459873  9.02105935 
      484   1   -7.36146947 -16.19239883  10.46479925 
      485   2   -8.82578936 -14.71039894  11.90989914 
      486   1   -7.35488947 -13.23349904  13.35559903 
      487   2   -8.81854937 -11.75649915  14.80509893 
      488   2   -5.89180958 -29.60799786 -0.00040507 
      489   3   -4.42142968 -28.10469797  1.53137989 
      490   2   -5.88795957 -26.59919808  3.06225978 
      491   3   -4.42225968 -25.09989819  4.59791967 
      492   2   -5.88667957 -23.60259830  6.13772956 
      493   1   -4.42021968 -22.11279840  7.57836945 
      494   2   -5.88571958 -20.62359851  9.02204935 
      495   1   -4.41830968 -19.13759862  10.46689924 
      496   2   -5.88208958 -17.65229873  11.91159914 
      497   1   -4.41391968 -16.17209883  13.35719903 
      498   2   -5.87865958 -14.69339894  14.80559893 
      499   2   -2.93730979 -29.58509786  3.06303978 
      500   3   -1.47553990 -28.07309797  4.59831967 
      501   2   -2.93701979 -26.56479808  6.13789956 
      502   1   -1.47364989 -25.06689819  7.57862945 
      503   2   -2.93829979 -23.57309830  9.02304935 
      504   1   -1.47391989 -22.08329840  10.46899924 
      505   2   -2.93836979 -20.59549851  11.91369914 
      506   1   -1.47249989 -19.11179862  13.35959904 
      507   2   -2.93753979 -17.63069873  14.80699893 
      508   2    0.01300450 -29.53039787  6.14267956 
      509   1    1.47196989 -28.02229798  7.58229945 
      510   2    0.00911041 -26.52279809  9.02664935 
      511   1    1.47040989 -25.02809819  10.47319924 
      512   2    0.00584836 -23.53739830  11.91829914 
      513   1    1.46944989 -22.05109841  13.36469904 
      514   2    0.00450137 -20.56709852  14.81049893 
      515   2    2.95538979 -29.46869787  9.03742935 
      516   1    4.41470968 -27.96929798  10.48309924 
      517   2    2.95046979 -26.47599809  11.92829914 
      518   1    4.41150968 -24.98699820  13.37489903 
      519   2    2.94602979 -23.50119830  14.82009893 
      520   2    5.89400957 -29.40809787  11.94709914 
      521   1    7.35370947 -27.91799799  13.39239903 
      522   2    5.88724958 -26.43169809  14.83669893 
      523   1   -27.92029799 -13.23409905 -13.39139903 
      524   2   -29.41159788 -11.77679915 -11.94619914 
      525   1   -27.97119798 -10.30039925 -10.48239924 
      526   2   -29.47079787 -8.84299936 -9.03620935 
      527   1   -28.02269798 -7.36140947 -7.58159946 
      528   2   -29.53099787 -5.90297958 -6.14191955 
      529   3   -28.07329798 -4.41564968 -4.59748967 
      530   2   -29.58659786 -2.95320979 -3.06347978 
      531   3   -28.10539797 -1.47173990 -1.53099989 
      532   2   -29.60769786 -0.00000000 -0.00000000 
      533   3   -28.10539797  1.47173990  1.53099989 
      534   2   -29.58659786  2.95320979  3.06347978 
      535   3   -28.07329798  4.41564968  4.59748967 
      536   2   -29.53099787  5.90297958  6.14191955 
      537   1   -28.02269798  7.36140947  7.58159946 
      538   2   -29.47079787  8.84299936  9.03620935 
      539   1   -27.97119798  10.30039925  10.48239924 
      540   2   -29.41159788  11.77679915  11.94619914 