LAMMPS configuration data file

  11473 atoms

  3 atom types

  -57.816802  57.816802  xlo xhi
  -57.816802  57.816802  ylo yhi
  -43.271878  43.271878  zlo zhi

 Masses

  1   32.065
  2   112.411
  3   78.960

 Atoms

        1   1   -36.36230938 -36.36230938  18.90840087 
        2   2   -37.81680175 -34.90781700  20.36289325 
        3   1   -36.36230938 -33.45332463  21.81738562 
        4   2   -34.90781700 -37.81680175  20.36289325 
        5   1   -33.45332463 -36.36230938  21.81738562 
        6   2   -34.90781700 -34.90781700  23.27187800 
        7   1   -36.36230938 -36.36230938  13.09043137 
        8   2   -37.81680175 -34.90781700  14.54492375 
        9   1   -36.36230938 -33.45332463  15.99941612 
       10   2   -37.81680175 -31.99883225  17.45390850 
       11   1   -36.36230938 -30.54433988  18.90840087 
       12   2   -37.81680175 -29.08984750  20.36289325 
       13   1   -36.36230938 -27.63535513  21.81738562 
       14   2   -34.90781700 -37.81680175  14.54492375 
       15   1   -33.45332463 -36.36230938  15.99941612 
       16   2   -34.90781700 -34.90781700  17.45390850 
       17   1   -33.45332463 -33.45332463  18.90840087 
       18   2   -34.90781700 -31.99883225  20.36289325 
       19   1   -33.45332463 -30.54433988  21.81738562 
       20   2   -34.90781700 -29.08984750  23.27187800 
       21   2   -31.99883225 -37.81680175  17.45390850 
       22   1   -30.54433988 -36.36230938  18.90840087 
       23   2   -31.99883225 -34.90781700  20.36289325 
       24   1   -30.54433988 -33.45332463  21.81738562 
       25   2   -31.99883225 -31.99883225  23.27187800 
       26   2   -29.08984750 -37.81680175  20.36289325 
       27   1   -27.63535513 -36.36230938  21.81738562 
       28   2   -29.08984750 -34.90781700  23.27187800 
       29   1   -36.36230938 -36.36230938  7.27246187 
       30   2   -37.81680175 -34.90781700  8.72695425 
       31   1   -36.36230938 -33.45332463  10.18144662 
       32   2   -37.81680175 -31.99883225  11.63593900 
       33   1   -36.36230938 -30.54433988  13.09043137 
       34   2   -37.81680175 -29.08984750  14.54492375 
       35   1   -36.36230938 -27.63535513  15.99941612 
       36   2   -37.81680175 -26.18086275  17.45390850 
       37   1   -36.36230938 -24.72637038  18.90840087 
       38   2   -37.81680175 -23.27187800  20.36289325 
       39   1   -36.36230938 -21.81738563  21.81738562 
       40   2   -34.90781700 -37.81680175  8.72695425 
       41   1   -33.45332463 -36.36230938  10.18144662 
       42   2   -34.90781700 -34.90781700  11.63593900 
       43   1   -33.45332463 -33.45332463  13.09043137 
       44   2   -34.90781700 -31.99883225  14.54492375 
       45   1   -33.45332463 -30.54433988  15.99941612 
       46   2   -34.90781700 -29.08984750  17.45390850 
       47   1   -33.45332463 -27.63535513  18.90840087 
       48   2   -34.90781700 -26.18086275  20.36289325 
       49   1   -33.45332463 -24.72637038  21.81738562 
       50   2   -34.90781700 -23.27187800  23.27187800 
       51   2   -31.99883225 -37.81680175  11.63593900 
       52   1   -30.54433988 -36.36230938  13.09043137 
       53   2   -31.99883225 -34.90781700  14.54492375 
       54   1   -30.54433988 -33.45332463  15.99941612 
       55   2   -31.99883225 -31.99883225  17.45390850 
       56   1   -30.54433988 -30.54433988  18.90840087 
       57   2   -31.99883225 -29.08984750  20.36289325 
       58   1   -30.54433988 -27.63535513  21.81738562 
       59   2   -31.99883225 -26.18086275  23.27187800 
       60   2   -29.08984750 -37.81680175  14.54492375 
       61   1   -27.63535513 -36.36230938  15.99941612 
       62   2   -29.08984750 -34.90781700  17.45390850 
       63   1   -27.63535513 -33.45332463  18.90840087 
       64   2   -29.08984750 -31.99883225  20.36289325 
       65   1   -27.63535513 -30.54433988  21.81738562 
       66   2   -29.08984750 -29.08984750  23.27187800 
       67   2   -26.18086275 -37.81680175  17.45390850 
       68   1   -24.72637038 -36.36230938  18.90840087 
       69   2   -26.18086275 -34.90781700  20.36289325 
       70   1   -24.72637038 -33.45332463  21.81738562 
       71   2   -26.18086275 -31.99883225  23.27187800 
       72   2   -23.27187800 -37.81680175  20.36289325 
       73   1   -21.81738563 -36.36230938  21.81738562 
       74   2   -23.27187800 -34.90781700  23.27187800 
       75   3   -36.36230938 -36.36230938  1.45449237 
       76   2   -37.81680175 -34.90781700  2.90898475 
       77   3   -36.36230938 -33.45332463  4.36347712 
       78   2   -37.81680175 -31.99883225  5.81796950 
       79   1   -36.36230938 -30.54433988  7.27246187 
       80   2   -37.81680175 -29.08984750  8.72695425 
       81   1   -36.36230938 -27.63535513  10.18144662 
       82   2   -37.81680175 -26.18086275  11.63593900 
       83   1   -36.36230938 -24.72637038  13.09043137 
       84   2   -37.81680175 -23.27187800  14.54492375 
       85   1   -36.36230938 -21.81738563  15.99941612 
       86   2   -37.81680175 -20.36289325  17.45390850 
       87   1   -36.36230938 -18.90840088  18.90840087 
       88   2   -37.81680175 -17.45390850  20.36289325 
       89   1   -36.36230938 -15.99941613  21.81738562 
       90   2   -34.90781700 -37.81680175  2.90898475 
       91   3   -33.45332463 -36.36230938  4.36347712 
       92   2   -34.90781700 -34.90781700  5.81796950 
       93   1   -33.45332463 -33.45332463  7.27246187 
       94   2   -34.90781700 -31.99883225  8.72695425 
       95   1   -33.45332463 -30.54433988  10.18144662 
       96   2   -34.90781700 -29.08984750  11.63593900 
       97   1   -33.45332463 -27.63535513  13.09043137 
       98   2   -34.90781700 -26.18086275  14.54492375 
       99   1   -33.45332463 -24.72637038  15.99941612 
      100   2   -34.90781700 -23.27187800  17.45390850 
      101   1   -33.45332463 -21.81738563  18.90840087 
      102   2   -34.90781700 -20.36289325  20.36289325 
      103   1   -33.45332463 -18.90840088  21.81738562 
      104   2   -34.90781700 -17.45390850  23.27187800 
      105   2   -31.99883225 -37.81680175  5.81796950 
      106   1   -30.54433988 -36.36230938  7.27246187 
      107   2   -31.99883225 -34.90781700  8.72695425 
      108   1   -30.54433988 -33.45332463  10.18144662 
      109   2   -31.99883225 -31.99883225  11.63593900 
      110   1   -30.54433988 -30.54433988  13.09043137 
      111   2   -31.99883225 -29.08984750  14.54492375 
      112   1   -30.54433988 -27.63535513  15.99941612 
      113   2   -31.99883225 -26.18086275  17.45390850 
      114   1   -30.54433988 -24.72637038  18.90840087 
      115   2   -31.99883225 -23.27187800  20.36289325 
      116   1   -30.54433988 -21.81738563  21.81738562 
      117   2   -31.99883225 -20.36289325  23.27187800 
      118   2   -29.08984750 -37.81680175  8.72695425 
      119   1   -27.63535513 -36.36230938  10.18144662 
      120   2   -29.08984750 -34.90781700  11.63593900 
      121   1   -27.63535513 -33.45332463  13.09043137 
      122   2   -29.08984750 -31.99883225  14.54492375 
      123   1   -27.63535513 -30.54433988  15.99941612 
      124   2   -29.08984750 -29.08984750  17.45390850 
      125   1   -27.63535513 -27.63535513  18.90840087 
      126   2   -29.08984750 -26.18086275  20.36289325 
      127   1   -27.63535513 -24.72637038  21.81738562 
      128   2   -29.08984750 -23.27187800  23.27187800 
      129   2   -26.18086275 -37.81680175  11.63593900 
      130   1   -24.72637038 -36.36230938  13.09043137 
      131   2   -26.18086275 -34.90781700  14.54492375 
      132   1   -24.72637038 -33.45332463  15.99941612 
      133   2   -26.18086275 -31.99883225  17.45390850 
      134   1   -24.72637038 -30.54433988  18.90840087 
      135   2   -26.18086275 -29.08984750  20.36289325 
      136   1   -24.72637038 -27.63535513  21.81738562 
      137   2   -26.18086275 -26.18086275  23.27187800 
      138   2   -23.27187800 -37.81680175  14.54492375 
      139   1   -21.81738563 -36.36230938  15.99941612 
      140   2   -23.27187800 -34.90781700  17.45390850 
      141   1   -21.81738563 -33.45332463  18.90840087 
      142   2   -23.27187800 -31.99883225  20.36289325 
      143   1   -21.81738563 -30.54433988  21.81738562 
      144   2   -23.27187800 -29.08984750  23.27187800 
      145   2   -20.36289325 -37.81680175  17.45390850 
      146   1   -18.90840088 -36.36230938  18.90840087 
      147   2   -20.36289325 -34.90781700  20.36289325 
      148   1   -18.90840088 -33.45332463  21.81738562 
      149   2   -20.36289325 -31.99883225  23.27187800 
      150   2   -17.45390850 -37.81680175  20.36289325 
      151   1   -15.99941613 -36.36230938  21.81738562 
      152   2   -17.45390850 -34.90781700  23.27187800 
      153   3   -36.36230938 -36.36230938 -4.36347713 
      154   2   -37.81680175 -34.90781700 -2.90898475 
      155   3   -36.36230938 -33.45332463 -1.45449238 
      156   2   -37.81680175 -31.99883225 -0.00000000 
      157   3   -36.36230938 -30.54433988  1.45449237 
      158   2   -37.81680175 -29.08984750  2.90898475 
      159   3   -36.36230938 -27.63535513  4.36347712 
      160   2   -37.81680175 -26.18086275  5.81796950 
      161   1   -36.36230938 -24.72637038  7.27246187 
      162   2   -37.81680175 -23.27187800  8.72695425 
      163   1   -36.36230938 -21.81738563  10.18144662 
      164   2   -37.81680175 -20.36289325  11.63593900 
      165   1   -36.36230938 -18.90840088  13.09043137 
      166   2   -37.81680175 -17.45390850  14.54492375 
      167   1   -36.36230938 -15.99941613  15.99941612 
      168   2   -37.81680175 -14.54492375  17.45390850 
      169   1   -36.36230938 -13.09043138  18.90840087 
      170   2   -37.81680175 -11.63593900  20.36289325 
      171   1   -36.36230938 -10.18144663  21.81738562 
      172   2   -34.90781700 -37.81680175 -2.90898475 
      173   3   -33.45332463 -36.36230938 -1.45449238 
      174   2   -34.90781700 -34.90781700 -0.00000000 
      175   3   -33.45332463 -33.45332463  1.45449237 
      176   2   -34.90781700 -31.99883225  2.90898475 
      177   3   -33.45332463 -30.54433988  4.36347712 
      178   2   -34.90781700 -29.08984750  5.81796950 
      179   1   -33.45332463 -27.63535513  7.27246187 
      180   2   -34.90781700 -26.18086275  8.72695425 
      181   1   -33.45332463 -24.72637038  10.18144662 
      182   2   -34.90781700 -23.27187800  11.63593900 
      183   1   -33.45332463 -21.81738563  13.09043137 
      184   2   -34.90781700 -20.36289325  14.54492375 
      185   1   -33.45332463 -18.90840088  15.99941612 
      186   2   -34.90781700 -17.45390850  17.45390850 
      187   1   -33.45332463 -15.99941613  18.90840087 
      188   2   -34.90781700 -14.54492375  20.36289325 
      189   1   -33.45332463 -13.09043138  21.81738562 
      190   2   -34.90781700 -11.63593900  23.27187800 
      191   2   -31.99883225 -37.81680175 -0.00000000 
      192   3   -30.54433988 -36.36230938  1.45449237 
      193   2   -31.99883225 -34.90781700  2.90898475 
      194   3   -30.54433988 -33.45332463  4.36347712 
      195   2   -31.99883225 -31.99883225  5.81796950 
      196   1   -30.54433988 -30.54433988  7.27246187 
      197   2   -31.99883225 -29.08984750  8.72695425 
      198   1   -30.54433988 -27.63535513  10.18144662 
      199   2   -31.99883225 -26.18086275  11.63593900 
      200   1   -30.54433988 -24.72637038  13.09043137 
      201   2   -31.99883225 -23.27187800  14.54492375 
      202   1   -30.54433988 -21.81738563  15.99941612 
      203   2   -31.99883225 -20.36289325  17.45390850 
      204   1   -30.54433988 -18.90840088  18.90840087 
      205   2   -31.99883225 -17.45390850  20.36289325 
      206   1   -30.54433988 -15.99941613  21.81738562 
      207   2   -31.99883225 -14.54492375  23.27187800 
      208   2   -29.08984750 -37.81680175  2.90898475 
      209   3   -27.63535513 -36.36230938  4.36347712 
      210   2   -29.08984750 -34.90781700  5.81796950 
      211   1   -27.63535513 -33.45332463  7.27246187 
      212   2   -29.08984750 -31.99883225  8.72695425 
      213   1   -27.63535513 -30.54433988  10.18144662 
      214   2   -29.08984750 -29.08984750  11.63593900 
      215   1   -27.63535513 -27.63535513  13.09043137 
      216   2   -29.08984750 -26.18086275  14.54492375 
      217   1   -27.63535513 -24.72637038  15.99941612 
      218   2   -29.08984750 -23.27187800  17.45390850 
      219   1   -27.63535513 -21.81738563  18.90840087 
      220   2   -29.08984750 -20.36289325  20.36289325 
      221   1   -27.63535513 -18.90840088  21.81738562 
      222   2   -29.08984750 -17.45390850  23.27187800 
      223   2   -26.18086275 -37.81680175  5.81796950 
      224   1   -24.72637038 -36.36230938  7.27246187 
      225   2   -26.18086275 -34.90781700  8.72695425 
      226   1   -24.72637038 -33.45332463  10.18144662 
      227   2   -26.18086275 -31.99883225  11.63593900 
      228   1   -24.72637038 -30.54433988  13.09043137 
      229   2   -26.18086275 -29.08984750  14.54492375 
      230   1   -24.72637038 -27.63535513  15.99941612 
      231   2   -26.18086275 -26.18086275  17.45390850 
      232   1   -24.72637038 -24.72637038  18.90840087 
      233   2   -26.18086275 -23.27187800  20.36289325 
      234   1   -24.72637038 -21.81738563  21.81738562 
      235   2   -26.18086275 -20.36289325  23.27187800 
      236   2   -23.27187800 -37.81680175  8.72695425 
      237   1   -21.81738563 -36.36230938  10.18144662 
      238   2   -23.27187800 -34.90781700  11.63593900 
      239   1   -21.81738563 -33.45332463  13.09043137 
      240   2   -23.27187800 -31.99883225  14.54492375 
      241   1   -21.81738563 -30.54433988  15.99941612 
      242   2   -23.27187800 -29.08984750  17.45390850 
      243   1   -21.81738563 -27.63535513  18.90840087 
      244   2   -23.27187800 -26.18086275  20.36289325 
      245   1   -21.81738563 -24.72637038  21.81738562 
      246   2   -23.27187800 -23.27187800  23.27187800 
      247   2   -20.36289325 -37.81680175  11.63593900 
      248   1   -18.90840088 -36.36230938  13.09043137 
      249   2   -20.36289325 -34.90781700  14.54492375 
      250   1   -18.90840088 -33.45332463  15.99941612 
      251   2   -20.36289325 -31.99883225  17.45390850 
      252   1   -18.90840088 -30.54433988  18.90840087 
      253   2   -20.36289325 -29.08984750  20.36289325 
      254   1   -18.90840088 -27.63535513  21.81738562 
      255   2   -20.36289325 -26.18086275  23.27187800 
      256   2   -17.45390850 -37.81680175  14.54492375 
      257   1   -15.99941613 -36.36230938  15.99941612 
      258   2   -17.45390850 -34.90781700  17.45390850 
      259   1   -15.99941613 -33.45332463  18.90840087 
      260   2   -17.45390850 -31.99883225  20.36289325 
      261   1   -15.99941613 -30.54433988  21.81738562 
      262   2   -17.45390850 -29.08984750  23.27187800 
      263   2   -14.54492375 -37.81680175  17.45390850 
      264   1   -13.09043138 -36.36230938  18.90840087 
      265   2   -14.54492375 -34.90781700  20.36289325 
      266   1   -13.09043138 -33.45332463  21.81738562 
      267   2   -14.54492375 -31.99883225  23.27187800 
      268   2   -11.63593900 -37.81680175  20.36289325 
      269   1   -10.18144663 -36.36230938  21.81738562 
      270   2   -11.63593900 -34.90781700  23.27187800 
      271   1   -36.36230938 -36.36230938 -10.18144663 
      272   2   -37.81680175 -34.90781700 -8.72695425 
      273   1   -36.36230938 -33.45332463 -7.27246188 
      274   2   -37.81680175 -31.99883225 -5.81796950 
      275   3   -36.36230938 -30.54433988 -4.36347713 
      276   2   -37.81680175 -29.08984750 -2.90898475 
      277   3   -36.36230938 -27.63535513 -1.45449238 
      278   2   -37.81680175 -26.18086275 -0.00000000 
      279   3   -36.36230938 -24.72637038  1.45449237 
      280   2   -37.81680175 -23.27187800  2.90898475 
      281   3   -36.36230938 -21.81738563  4.36347712 
      282   2   -37.81680175 -20.36289325  5.81796950 
      283   1   -36.36230938 -18.90840088  7.27246187 
      284   2   -37.81680175 -17.45390850  8.72695425 
      285   1   -36.36230938 -15.99941613  10.18144662 
      286   2   -37.81680175 -14.54492375  11.63593900 
      287   1   -36.36230938 -13.09043138  13.09043137 
      288   2   -37.81680175 -11.63593900  14.54492375 
      289   1   -36.36230938 -10.18144663  15.99941612 
      290   2   -37.81680175 -8.72695425  17.45390850 
      291   1   -36.36230938 -7.27246188  18.90840087 
      292   2   -37.81680175 -5.81796950  20.36289325 
      293   1   -36.36230938 -4.36347713  21.81738562 
      294   2   -34.90781700 -37.81680175 -8.72695425 
      295   1   -33.45332463 -36.36230938 -7.27246188 
      296   2   -34.90781700 -34.90781700 -5.81796950 
      297   3   -33.45332463 -33.45332463 -4.36347713 
      298   2   -34.90781700 -31.99883225 -2.90898475 
      299   3   -33.45332463 -30.54433988 -1.45449238 
      300   2   -34.90781700 -29.08984750 -0.00000000 
      301   3   -33.45332463 -27.63535513  1.45449237 
      302   2   -34.90781700 -26.18086275  2.90898475 
      303   3   -33.45332463 -24.72637038  4.36347712 
      304   2   -34.90781700 -23.27187800  5.81796950 
      305   1   -33.45332463 -21.81738563  7.27246187 
      306   2   -34.90781700 -20.36289325  8.72695425 
      307   1   -33.45332463 -18.90840088  10.18144662 
      308   2   -34.90781700 -17.45390850  11.63593900 
      309   1   -33.45332463 -15.99941613  13.09043137 
      310   2   -34.90781700 -14.54492375  14.54492375 
      311   1   -33.45332463 -13.09043138  15.99941612 
      312   2   -34.90781700 -11.63593900  17.45390850 
      313   1   -33.45332463 -10.18144663  18.90840087 
      314   2   -34.90781700 -8.72695425  20.36289325 
      315   1   -33.45332463 -7.27246188  21.81738562 
      316   2   -34.90781700 -5.81796950  23.27187800 
      317   2   -31.99883225 -37.81680175 -5.81796950 
      318   3   -30.54433988 -36.36230938 -4.36347713 
      319   2   -31.99883225 -34.90781700 -2.90898475 
      320   3   -30.54433988 -33.45332463 -1.45449238 
      321   2   -31.99883225 -31.99883225 -0.00000000 
      322   3   -30.54433988 -30.54433988  1.45449237 
      323   2   -31.99883225 -29.08984750  2.90898475 
      324   3   -30.54433988 -27.63535513  4.36347712 
      325   2   -31.99883225 -26.18086275  5.81796950 
      326   1   -30.54433988 -24.72637038  7.27246187 
      327   2   -31.99883225 -23.27187800  8.72695425 
      328   1   -30.54433988 -21.81738563  10.18144662 
      329   2   -31.99883225 -20.36289325  11.63593900 
      330   1   -30.54433988 -18.90840088  13.09043137 
      331   2   -31.99883225 -17.45390850  14.54492375 
      332   1   -30.54433988 -15.99941613  15.99941612 
      333   2   -31.99883225 -14.54492375  17.45390850 
      334   1   -30.54433988 -13.09043138  18.90840087 
      335   2   -31.99883225 -11.63593900  20.36289325 
      336   1   -30.54433988 -10.18144663  21.81738562 
      337   2   -31.99883225 -8.72695425  23.27187800 
      338   2   -29.08984750 -37.81680175 -2.90898475 
      339   3   -27.63535513 -36.36230938 -1.45449238 
      340   2   -29.08984750 -34.90781700 -0.00000000 
      341   3   -27.63535513 -33.45332463  1.45449237 
      342   2   -29.08984750 -31.99883225  2.90898475 
      343   3   -27.63535513 -30.54433988  4.36347712 
      344   2   -29.08984750 -29.08984750  5.81796950 
      345   1   -27.63535513 -27.63535513  7.27246187 
      346   2   -29.08984750 -26.18086275  8.72695425 
      347   1   -27.63535513 -24.72637038  10.18144662 
      348   2   -29.08984750 -23.27187800  11.63593900 
      349   1   -27.63535513 -21.81738563  13.09043137 
      350   2   -29.08984750 -20.36289325  14.54492375 
      351   1   -27.63535513 -18.90840088  15.99941612 
      352   2   -29.08984750 -17.45390850  17.45390850 
      353   1   -27.63535513 -15.99941613  18.90840087 
      354   2   -29.08984750 -14.54492375  20.36289325 
      355   1   -27.63535513 -13.09043138  21.81738562 
      356   2   -29.08984750 -11.63593900  23.27187800 
      357   2   -26.18086275 -37.81680175 -0.00000000 
      358   3   -24.72637038 -36.36230938  1.45449237 
      359   2   -26.18086275 -34.90781700  2.90898475 
      360   3   -24.72637038 -33.45332463  4.36347712 
      361   2   -26.18086275 -31.99883225  5.81796950 
      362   1   -24.72637038 -30.54433988  7.27246187 
      363   2   -26.18086275 -29.08984750  8.72695425 
      364   1   -24.72637038 -27.63535513  10.18144662 
      365   2   -26.18086275 -26.18086275  11.63593900 
      366   1   -24.72637038 -24.72637038  13.09043137 
      367   2   -26.18086275 -23.27187800  14.54492375 
      368   1   -24.72637038 -21.81738563  15.99941612 
      369   2   -26.18086275 -20.36289325  17.45390850 
      370   1   -24.72637038 -18.90840088  18.90840087 
      371   2   -26.18086275 -17.45390850  20.36289325 
      372   1   -24.72637038 -15.99941613  21.81738562 
      373   2   -26.18086275 -14.54492375  23.27187800 
      374   2   -23.27187800 -37.81680175  2.90898475 
      375   3   -21.81738563 -36.36230938  4.36347712 
      376   2   -23.27187800 -34.90781700  5.81796950 
      377   1   -21.81738563 -33.45332463  7.27246187 
      378   2   -23.27187800 -31.99883225  8.72695425 
      379   1   -21.81738563 -30.54433988  10.18144662 
      380   2   -23.27187800 -29.08984750  11.63593900 
      381   1   -21.81738563 -27.63535513  13.09043137 
      382   2   -23.27187800 -26.18086275  14.54492375 
      383   1   -21.81738563 -24.72637038  15.99941612 
      384   2   -23.27187800 -23.27187800  17.45390850 
      385   1   -21.81738563 -21.81738563  18.90840087 
      386   2   -23.27187800 -20.36289325  20.36289325 
      387   1   -21.81738563 -18.90840088  21.81738562 
      388   2   -23.27187800 -17.45390850  23.27187800 
      389   2   -20.36289325 -37.81680175  5.81796950 
      390   1   -18.90840088 -36.36230938  7.27246187 
      391   2   -20.36289325 -34.90781700  8.72695425 
      392   1   -18.90840088 -33.45332463  10.18144662 
      393   2   -20.36289325 -31.99883225  11.63593900 
      394   1   -18.90840088 -30.54433988  13.09043137 
      395   2   -20.36289325 -29.08984750  14.54492375 
      396   1   -18.90840088 -27.63535513  15.99941612 
      397   2   -20.36289325 -26.18086275  17.45390850 
      398   1   -18.90840088 -24.72637038  18.90840087 
      399   2   -20.36289325 -23.27187800  20.36289325 
      400   1   -18.90840088 -21.81738563  21.81738562 
      401   2   -20.36289325 -20.36289325  23.27187800 
      402   2   -17.45390850 -37.81680175  8.72695425 
      403   1   -15.99941613 -36.36230938  10.18144662 
      404   2   -17.45390850 -34.90781700  11.63593900 
      405   1   -15.99941613 -33.45332463  13.09043137 
      406   2   -17.45390850 -31.99883225  14.54492375 
      407   1   -15.99941613 -30.54433988  15.99941612 
      408   2   -17.45390850 -29.08984750  17.45390850 
      409   1   -15.99941613 -27.63535513  18.90840087 
      410   2   -17.45390850 -26.18086275  20.36289325 
      411   1   -15.99941613 -24.72637038  21.81738562 
      412   2   -17.45390850 -23.27187800  23.27187800 
      413   2   -14.54492375 -37.81680175  11.63593900 
      414   1   -13.09043138 -36.36230938  13.09043137 
      415   2   -14.54492375 -34.90781700  14.54492375 
      416   1   -13.09043138 -33.45332463  15.99941612 
      417   2   -14.54492375 -31.99883225  17.45390850 
      418   1   -13.09043138 -30.54433988  18.90840087 
      419   2   -14.54492375 -29.08984750  20.36289325 
      420   1   -13.09043138 -27.63535513  21.81738562 
      421   2   -14.54492375 -26.18086275  23.27187800 
      422   2   -11.63593900 -37.81680175  14.54492375 
      423   1   -10.18144663 -36.36230938  15.99941612 
      424   2   -11.63593900 -34.90781700  17.45390850 
      425   1   -10.18144663 -33.45332463  18.90840087 
      426   2   -11.63593900 -31.99883225  20.36289325 
      427   1   -10.18144663 -30.54433988  21.81738562 
      428   2   -11.63593900 -29.08984750  23.27187800 
      429   2   -8.72695425 -37.81680175  17.45390850 
      430   1   -7.27246188 -36.36230938  18.90840087 
      431   2   -8.72695425 -34.90781700  20.36289325 
      432   1   -7.27246188 -33.45332463  21.81738562 
      433   2   -8.72695425 -31.99883225  23.27187800 
      434   2   -5.81796950 -37.81680175  20.36289325 
      435   1   -4.36347713 -36.36230938  21.81738562 
      436   2   -5.81796950 -34.90781700  23.27187800 
      437   1   -36.36230938 -36.36230938 -15.99941613 
      438   2   -37.81680175 -34.90781700 -14.54492375 
      439   1   -36.36230938 -33.45332463 -13.09043138 
      440   2   -37.81680175 -31.99883225 -11.63593900 
      441   1   -36.36230938 -30.54433988 -10.18144663 
      442   2   -37.81680175 -29.08984750 -8.72695425 
      443   1   -36.36230938 -27.63535513 -7.27246188 
      444   2   -37.81680175 -26.18086275 -5.81796950 
      445   3   -36.36230938 -24.72637038 -4.36347713 
      446   2   -37.81680175 -23.27187800 -2.90898475 
      447   3   -36.36230938 -21.81738563 -1.45449238 
      448   2   -37.81680175 -20.36289325 -0.00000000 
      449   3   -36.36230938 -18.90840088  1.45449237 
      450   2   -37.81680175 -17.45390850  2.90898475 
      451   3   -36.36230938 -15.99941613  4.36347712 
      452   2   -37.81680175 -14.54492375  5.81796950 
      453   1   -36.36230938 -13.09043138  7.27246187 
      454   2   -37.81680175 -11.63593900  8.72695425 
      455   1   -36.36230938 -10.18144663  10.18144662 
      456   2   -37.81680175 -8.72695425  11.63593900 
      457   1   -36.36230938 -7.27246188  13.09043137 
      458   2   -37.81680175 -5.81796950  14.54492375 
      459   1   -36.36230938 -4.36347713  15.99941612 
      460   2   -37.81680175 -2.90898475  17.45390850 
      461   1   -36.36230938 -1.45449238  18.90840087 
      462   2   -37.81680175 -0.00000000  20.36289325 
      463   1   -36.36230938  1.45449237  21.81738562 
      464   2   -34.90781700 -37.81680175 -14.54492375 
      465   1   -33.45332463 -36.36230938 -13.09043138 
      466   2   -34.90781700 -34.90781700 -11.63593900 
      467   1   -33.45332463 -33.45332463 -10.18144663 
      468   2   -34.90781700 -31.99883225 -8.72695425 
      469   1   -33.45332463 -30.54433988 -7.27246188 
      470   2   -34.90781700 -29.08984750 -5.81796950 
      471   3   -33.45332463 -27.63535513 -4.36347713 
      472   2   -34.90781700 -26.18086275 -2.90898475 
      473   3   -33.45332463 -24.72637038 -1.45449238 
      474   2   -34.90781700 -23.27187800 -0.00000000 
      475   3   -33.45332463 -21.81738563  1.45449237 
      476   2   -34.90781700 -20.36289325  2.90898475 
      477   3   -33.45332463 -18.90840088  4.36347712 
      478   2   -34.90781700 -17.45390850  5.81796950 
      479   1   -33.45332463 -15.99941613  7.27246187 
      480   2   -34.90781700 -14.54492375  8.72695425 
      481   1   -33.45332463 -13.09043138  10.18144662 
      482   2   -34.90781700 -11.63593900  11.63593900 
      483   1   -33.45332463 -10.18144663  13.09043137 
      484   2   -34.90781700 -8.72695425  14.54492375 
      485   1   -33.45332463 -7.27246188  15.99941612 
      486   2   -34.90781700 -5.81796950  17.45390850 
      487   1   -33.45332463 -4.36347713  18.90840087 
      488   2   -34.90781700 -2.90898475  20.36289325 
      489   1   -33.45332463 -1.45449238  21.81738562 
      490   2   -34.90781700 -0.00000000  23.27187800 
      491   2   -31.99883225 -37.81680175 -11.63593900 
      492   1   -30.54433988 -36.36230938 -10.18144663 
      493   2   -31.99883225 -34.90781700 -8.72695425 
      494   1   -30.54433988 -33.45332463 -7.27246188 
      495   2   -31.99883225 -31.99883225 -5.81796950 
      496   3   -30.54433988 -30.54433988 -4.36347713 
      497   2   -31.99883225 -29.08984750 -2.90898475 
      498   3   -30.54433988 -27.63535513 -1.45449238 
      499   2   -31.99883225 -26.18086275 -0.00000000 
      500   3   -30.54433988 -24.72637038  1.45449237 
      501   2   -31.99883225 -23.27187800  2.90898475 
      502   3   -30.54433988 -21.81738563  4.36347712 
      503   2   -31.99883225 -20.36289325  5.81796950 
      504   1   -30.54433988 -18.90840088  7.27246187 
      505   2   -31.99883225 -17.45390850  8.72695425 
      506   1   -30.54433988 -15.99941613  10.18144662 
      507   2   -31.99883225 -14.54492375  11.63593900 
      508   1   -30.54433988 -13.09043138  13.09043137 
      509   2   -31.99883225 -11.63593900  14.54492375 
      510   1   -30.54433988 -10.18144663  15.99941612 
      511   2   -31.99883225 -8.72695425  17.45390850 
      512   1   -30.54433988 -7.27246188  18.90840087 
      513   2   -31.99883225 -5.81796950  20.36289325 
      514   1   -30.54433988 -4.36347713  21.81738562 
      515   2   -31.99883225 -2.90898475  23.27187800 
      516   2   -29.08984750 -37.81680175 -8.72695425 
      517   1   -27.63535513 -36.36230938 -7.27246188 
      518   2   -29.08984750 -34.90781700 -5.81796950 
      519   3   -27.63535513 -33.45332463 -4.36347713 
      520   2   -29.08984750 -31.99883225 -2.90898475 
      521   3   -27.63535513 -30.54433988 -1.45449238 
      522   2   -29.08984750 -29.08984750 -0.00000000 
      523   3   -27.63535513 -27.63535513  1.45449237 
      524   2   -29.08984750 -26.18086275  2.90898475 
      525   3   -27.63535513 -24.72637038  4.36347712 
      526   2   -29.08984750 -23.27187800  5.81796950 
      527   1   -27.63535513 -21.81738563  7.27246187 
      528   2   -29.08984750 -20.36289325  8.72695425 
      529   1   -27.63535513 -18.90840088  10.18144662 
      530   2   -29.08984750 -17.45390850  11.63593900 
      531   1   -27.63535513 -15.99941613  13.09043137 
      532   2   -29.08984750 -14.54492375  14.54492375 
      533   1   -27.63535513 -13.09043138  15.99941612 
      534   2   -29.08984750 -11.63593900  17.45390850 
      535   1   -27.63535513 -10.18144663  18.90840087 