LAMMPS configuration data file

  1209 atoms

  4 atom types

  -35.221499  35.221499  xlo xhi
  -35.221499  35.221499  ylo yhi
  -35.221499  35.221499  zlo zhi

 Masses

  1   78.960
  2   112.411
  3   1.000
  4   1.000

 Atoms

        1   1   -15.15819891 -9.11907934 -0.00734593 
        2   1   -15.18889890 -6.07801956  3.04098978 
        3   1   -15.18889890 -3.04098978  6.07801956 
        4   1   -15.15819891  0.00734592  9.11907934 
        5   1   -12.15499912 -12.15499912 -0.00819862 
        6   2   -13.67739901 -10.65819923  1.54587989 
        7   1   -12.16459912 -9.13259934  3.07182978 
        8   2   -13.71149901 -7.62856945  4.59098967 
        9   1   -12.18209912 -6.07947956  6.07947956 
       10   2   -13.71149901 -4.59098967  7.62856945 
       11   1   -12.16459912 -3.07182978  9.13259934 
       12   2   -13.67739901 -1.54587989  10.65819923 
       13   1   -12.15499912  0.00819861  12.15499912 
       14   1   -9.11907934 -15.15819891 -0.00734593 
       15   2   -10.65819923 -13.67739901  1.54587989 
       16   1   -9.13259934 -12.16459912  3.07182978 
       17   2   -10.68089923 -10.68089923  4.61186966 
       18   1   -9.12880934 -9.12880934  6.07295956 
       19   2   -10.62949924 -7.58325945  7.58325945 
       20   1   -9.12880934 -6.07295956  9.12880934 
       21   2   -10.68089923 -4.61186966  10.68089923 
       22   1   -9.13259934 -3.07182978  12.16459912 
       23   2   -10.65819923 -1.54587989  13.67739901 
       24   1   -9.11907934  0.00734592  15.15819891 
       25   1   -6.07801956 -15.18889890  3.04098978 
       26   2   -7.62856945 -13.71149901  4.59098967 
       27   1   -6.07947956 -12.18209912  6.07947956 
       28   2   -7.58325945 -10.62949924  7.58325945 
       29   1   -6.07295956 -9.12880934  9.12880934 
       30   2   -7.58325945 -7.58325945  10.62949924 
       31   1   -6.07947956 -6.07947956  12.18209912 
       32   2   -7.62856945 -4.59098967  13.71149901 
       33   1   -6.07801956 -3.04098978  15.18889890 
       34   1   -3.04098978 -15.18889890  6.07801956 
       35   2   -4.59098967 -13.71149901  7.62856945 
       36   1   -3.07182978 -12.16459912  9.13259934 
       37   2   -4.61186966 -10.68089923  10.68089923 
       38   1   -3.07182978 -9.13259934  12.16459912 
       39   2   -4.59098967 -7.62856945  13.71149901 
       40   1   -3.04098978 -6.07801956  15.18889890 
       41   1    0.00734592 -15.15819891  9.11907934 
       42   2   -1.54587989 -13.67739901  10.65819923 
       43   1    0.00819861 -12.15499912  12.15499912 
       44   2   -1.54587989 -10.65819923  13.67739901 
       45   1    0.00734592 -9.11907934  15.15819891 
       46   1   -15.19209890 -6.08465956 -3.04930978 
       47   1   -15.22149890 -3.03707978 -0.00082804 
       48   1   -15.22149890  0.00082804  3.03707978 
       49   1   -15.19209890  3.04930978  6.08465956 
       50   1   -12.12339912 -12.12339912 -6.06576956 
       51   2   -13.65789901 -10.66699923 -4.67297966 
       52   1   -12.17309912 -9.14805934 -3.08606978 
       53   2   -13.65239902 -7.60302945 -1.54337989 
       54   1   -12.15489912 -6.08489956  0.00167232 
       55   2   -13.68209901 -4.55546967  1.50945989 
       56   1   -12.16699912 -3.03562978  3.03562978 
       57   2   -13.68209901 -1.50945989  4.55546967 
       58   1   -12.15489912 -0.00167233  6.08489956 
       59   2   -13.65239902  1.54337989  7.60302945 
       60   1   -12.17309912  3.08606978  9.14805934 
       61   2   -13.65789901  4.67297966  10.66699923 
       62   1   -12.12339912  6.06576956  12.12339912 
       63   2   -10.66699923 -13.65789901 -4.67297966 
       64   1   -9.14805934 -12.17309912 -3.08606978 
       65   2   -10.64249923 -10.64249923 -1.54506989 
       66   1   -9.13224934 -9.13224934 -0.00038246 
       67   2   -10.65159923 -7.61654945  1.53289989 
       68   1   -9.13091934 -6.08402956  3.04310978 
       69   2   -10.65509923 -4.56117967  4.56117967 
       70   1   -9.13091934 -3.04310978  6.08402956 
       71   2   -10.65159923 -1.53289989  7.61654945 
       72   1   -9.13224934  0.00038246  9.13224934 
       73   2   -10.64249923  1.54506989  10.64249923 
       74   1   -9.14805934  3.08606978  12.17309912 
       75   2   -10.66699923  4.67297966  13.65789901 
       76   1   -6.08465956 -15.19209890 -3.04930978 
       77   2   -7.60302945 -13.65239902 -1.54337989 
       78   1   -6.08489956 -12.15489912  0.00167233 
       79   2   -7.61654945 -10.65159923  1.53289989 
       80   1   -6.08402956 -9.13091934  3.04310978 
       81   2   -7.60579945 -7.60579945  4.55866967 
       82   1   -6.08723956 -6.08723956  6.08723956 
       83   2   -7.60579945 -4.55866967  7.60579945 
       84   1   -6.08402956 -3.04310978  9.13091934 
       85   2   -7.61654945 -1.53289989  10.65159923 
       86   1   -6.08489956 -0.00167233  12.15489912 
       87   2   -7.60302945  1.54337989  13.65239902 
       88   1   -6.08465956  3.04930978  15.19209890 
       89   1   -3.03707978 -15.22149890 -0.00082804 
       90   2   -4.55546967 -13.68209901  1.50945989 
       91   1   -3.03562978 -12.16699912  3.03562978 
       92   2   -4.56117967 -10.65509923  4.56117967 
       93   1   -3.04310978 -9.13091934  6.08402956 
       94   2   -4.55866967 -7.60579945  7.60579945 
       95   1   -3.04310978 -6.08402956  9.13091934 
       96   2   -4.56117967 -4.56117967  10.65509923 
       97   1   -3.03562978 -3.03562978  12.16699912 
       98   2   -4.55546967 -1.50945989  13.68209901 
       99   1   -3.03707978  0.00082804  15.22149890 
      100   1    0.00082804 -15.22149890  3.03707978 
      101   2   -1.50945989 -13.68209901  4.55546967 
      102   1   -0.00167233 -12.15489912  6.08489956 
      103   2   -1.53289989 -10.65159923  7.61654945 
      104   1    0.00038246 -9.13224934  9.13224934 
      105   2   -1.53289989 -7.61654945  10.65159923 
      106   1   -0.00167233 -6.08489956  12.15489912 
      107   2   -1.50945989 -4.55546967  13.68209901 
      108   1    0.00082804 -3.03707978  15.22149890 
      109   1    3.04930978 -15.19209890  6.08465956 
      110   2    1.54337989 -13.65239902  7.60302945 
      111   1    3.08606978 -12.17309912  9.14805934 
      112   2    1.54506989 -10.64249923  10.64249923 
      113   1    3.08606978 -9.14805934  12.17309912 
      114   2    1.54337989 -7.60302945  13.65239902 
      115   1    3.04930978 -6.08465956  15.19209890 
      116   2    4.67297966 -13.65789901  10.66699923 
      117   1    6.06576956 -12.12339912  12.12339912 
      118   2    4.67297966 -10.66699923  13.65789901 
      119   1   -15.19209890 -3.04930978 -6.08465956 
      120   1   -15.22149890 -0.00082804 -3.03707978 
      121   1   -15.22149890  3.03707978  0.00082804 
      122   1   -15.19209890  6.08465956  3.04930978 
      123   1   -12.14599912 -9.09325934 -9.09325934 
      124   2   -13.74799901 -7.59812945 -7.59812945 
      125   1   -12.18239912 -6.09244956 -6.09244956 
      126   2   -13.66929902 -4.55589967 -4.55589967 
      127   1   -12.15859912 -3.03286978 -3.03286978 
      128   2   -13.69369901 -1.51897989 -1.51897989 
      129   1   -12.16909912 -0.00000000 -0.00000000 
      130   2   -13.69369901  1.51897989  1.51897989 
      131   1   -12.15859912  3.03286978  3.03286978 
      132   2   -13.66929902  4.55589967  4.55589967 
      133   1   -12.18239912  6.09244956  6.09244956 
      134   2   -13.74799901  7.59812945  7.59812945 
      135   1   -12.14599912  9.09325934  9.09325934 
      136   1   -9.09325934 -12.14599912 -9.09325934 
      137   2   -10.68779923 -10.68779923 -7.55500945 
      138   1   -9.13619934 -9.13619934 -6.09193956 
      139   2   -10.64799923 -7.60370945 -4.57601967 
      140   1   -9.12791934 -6.08927956 -3.04685978 
      141   2   -10.63799923 -4.56245967 -1.52062989 
      142   1   -9.11925934 -3.04114978  0.00050798 
      143   2   -10.64139923 -1.51794989  1.51794989 
      144   1   -9.11925934 -0.00050798  3.04114978 
      145   2   -10.63799923  1.52062989  4.56245967 
      146   1   -9.12791934  3.04685978  6.08927956 
      147   2   -10.64799923  4.57601967  7.60370945 
      148   1   -9.13619934  6.09193956  9.13619934 
      149   2   -10.68779923  7.55500945  10.68779923 
      150   1   -9.09325934  9.09325934  12.14599912 
      151   2   -7.59812945 -13.74799901 -7.59812945 
      152   1   -6.09244956 -12.18239912 -6.09244956 
      153   2   -7.60370945 -10.64799923 -4.57601967 
      154   1   -6.08927956 -9.12791934 -3.04685978 
      155   2   -7.61034945 -7.61034945 -1.52170989 
      156   1   -6.08860956 -6.08860956 -0.00067283 
      157   2   -7.60617945 -4.56679967  1.52316989 
      158   1   -6.08603956 -3.04467978  3.04467978 
      159   2   -7.60617945 -1.52316989  4.56679967 
      160   1   -6.08860956  0.00067283  6.08860956 
      161   2   -7.61034945  1.52170989  7.61034945 
      162   1   -6.08927956  3.04685978  9.12791934 
      163   2   -7.60370945  4.57601967  10.64799923 
      164   1   -6.09244956  6.09244956  12.18239912 
      165   2   -7.59812945  7.59812945  13.74799901 
      166   1   -3.04930978 -15.19209890 -6.08465956 
      167   2   -4.55589967 -13.66929902 -4.55589967 
      168   1   -3.03286978 -12.15859912 -3.03286978 
      169   2   -4.56245967 -10.63799923 -1.52062989 
      170   1   -3.04114978 -9.11925934  0.00050798 
      171   2   -4.56679967 -7.60617945  1.52316989 
      172   1   -3.04467978 -6.08603956  3.04467978 
      173   2   -4.56635967 -4.56635967  4.56635967 
      174   1   -3.04467978 -3.04467978  6.08603956 
      175   2   -4.56679967 -1.52316989  7.60617945 
      176   1   -3.04114978 -0.00050798  9.11925934 
      177   2   -4.56245967  1.52062989  10.63799923 
      178   1   -3.03286978  3.03286978  12.15859912 
      179   2   -4.55589967  4.55589967  13.66929902 
      180   1   -3.04930978  6.08465956  15.19209890 
      181   1   -0.00082804 -15.22149890 -3.03707978 
      182   2   -1.51897989 -13.69369901 -1.51897989 
      183   1   -0.00000000 -12.16909912 -0.00000000 
      184   2   -1.51794989 -10.64139923  1.51794989 
      185   1   -0.00050798 -9.11925934  3.04114978 
      186   2   -1.52316989 -7.60617945  4.56679967 
      187   1    0.00067283 -6.08860956  6.08860956 
      188   2   -1.52316989 -4.56679967  7.60617945 
      189   1   -0.00050798 -3.04114978  9.11925934 
      190   2   -1.51794989 -1.51794989  10.64139923 
      191   1    0.00000000  0.00000000  12.16909912 
      192   2   -1.51897989  1.51897989  13.69369901 
      193   1   -0.00082804  3.03707978  15.22149890 
      194   1    3.03707978 -15.22149890  0.00082804 
      195   2    1.51897989 -13.69369901  1.51897989 
      196   1    3.03286978 -12.15859912  3.03286978 
      197   2    1.52062989 -10.63799923  4.56245967 
      198   1    3.04685978 -9.12791934  6.08927956 
      199   2    1.52170989 -7.61034945  7.61034945 
      200   1    3.04685978 -6.08927956  9.12791934 
      201   2    1.52062989 -4.56245967  10.63799923 
      202   1    3.03286978 -3.03286978  12.15859912 
      203   2    1.51897989 -1.51897989  13.69369901 
      204   1    3.03707978 -0.00082804  15.22149890 
      205   1    6.08465956 -15.19209890  3.04930978 
      206   2    4.55589967 -13.66929902  4.55589967 
      207   1    6.09244956 -12.18239912  6.09244956 
      208   2    4.57601967 -10.64799923  7.60370945 
      209   1    6.09193956 -9.13619934  9.13619934 
      210   2    4.57601967 -7.60370945  10.64799923 
      211   1    6.09244956 -6.09244956  12.18239912 
      212   2    4.55589967 -4.55589967  13.66929902 
      213   1    6.08465956 -3.04930978  15.19209890 
      214   2    7.59812945 -13.74799901  7.59812945 
      215   1    9.09325934 -12.14599912  9.09325934 
      216   2    7.55500945 -10.68779923  10.68779923 
      217   1    9.09325934 -9.09325934  12.14599912 
      218   2    7.59812945 -7.59812945  13.74799901 
      219   1   -15.15819891 -0.00734592 -9.11907934 
      220   1   -15.18889890  3.04098978 -6.07801956 
      221   1   -15.18889890  6.07801956 -3.04098978 
      222   1   -15.15819891  9.11907934  0.00734592 
      223   1   -12.12339912 -6.06576956 -12.12339912 
      224   2   -13.65789901 -4.67297966 -10.66699923 
      225   1   -12.17309912 -3.08606978 -9.14805934 
      226   2   -13.65239902 -1.54337989 -7.60302945 
      227   1   -12.15489912  0.00167233 -6.08489956 
      228   2   -13.68209901  1.50945989 -4.55546967 
      229   1   -12.16699912  3.03562978 -3.03562978 
      230   2   -13.68209901  4.55546967 -1.50945989 
      231   1   -12.15489912  6.08489956 -0.00167233 
      232   2   -13.65239902  7.60302945  1.54337989 
      233   1   -12.17309912  9.14805934  3.08606978 
      234   2   -13.65789901  10.66699923  4.67297966 
      235   1   -12.12339912  12.12339912  6.06576956 
      236   1   -9.09325934 -9.09325934 -12.14599912 
      237   2   -10.68779923 -7.55500945 -10.68779923 
      238   1   -9.13619934 -6.09193956 -9.13619934 
      239   2   -10.64799923 -4.57601967 -7.60370945 
      240   1   -9.12791934 -3.04685978 -6.08927956 
      241   2   -10.63799923 -1.52062989 -4.56245967 
      242   1   -9.11925934  0.00050798 -3.04114978 
      243   2   -10.64139923  1.51794989 -1.51794989 
      244   1   -9.11925934  3.04114978 -0.00050798 
      245   2   -10.63799923  4.56245967  1.52062989 
      246   1   -9.12791934  6.08927956  3.04685978 
      247   2   -10.64799923  7.60370945  4.57601967 
      248   1   -9.13619934  9.13619934  6.09193956 
      249   2   -10.68779923  10.68779923  7.55500945 
      250   1   -9.09325934  12.14599912  9.09325934 
      251   1   -6.06576956 -12.12339912 -12.12339912 
      252   2   -7.55500945 -10.68779923 -10.68779923 
      253   1   -6.09193956 -9.13619934 -9.13619934 
      254   2   -7.61873945 -7.61873945 -7.61873945 
      255   1   -6.09590956 -6.09590956 -6.09590956 
      256   2   -7.60684945 -4.56937967 -4.56937967 
      257   1   -6.08730956 -3.04772978 -3.04772978 
      258   2   -7.59927945 -1.52312989 -1.52312989 
      259   1   -6.08244956 -0.00000000 -0.00000001 
      260   2   -7.59927945  1.52312989  1.52312989 
      261   1   -6.08730956  3.04772978  3.04772978 
      262   2   -7.60684945  4.56937967  4.56937967 
      263   1   -6.09590956  6.09590956  6.09590956 
      264   2   -7.61873945  7.61873945  7.61873945 
      265   1   -6.09193956  9.13619934  9.13619934 
      266   2   -7.55500945  10.68779923  10.68779923 
      267   1   -6.06576956  12.12339912  12.12339912 
      268   2   -4.67297966 -13.65789901 -10.66699923 
      269   1   -3.08606978 -12.17309912 -9.14805934 
      270   2   -4.57601967 -10.64799923 -7.60370945 
      271   1   -3.04685978 -9.12791934 -6.08927956 
      272   2   -4.56937967 -7.60684945 -4.56937967 
      273   1   -3.04772978 -6.08730956 -3.04772978 
      274   2   -4.56806967 -4.56806967 -1.52391989 
      275   1   -3.04671978 -3.04671978 -0.00032587 
      276   2   -4.56500967 -1.52318989  1.52318989 
      277   1   -3.04671978  0.00032585  3.04671978 
      278   2   -4.56806967  1.52391989  4.56806967 
      279   1   -3.04772978  3.04772978  6.08730956 
      280   2   -4.56937967  4.56937967  7.60684945 
      281   1   -3.04685978  6.08927956  9.12791934 
      282   2   -4.57601967  7.60370945  10.64799923 
      283   1   -3.08606978  9.14805934  12.17309912 
      284   2   -4.67297966  10.66699923  13.65789901 
      285   1   -0.00734592 -15.15819891 -9.11907934 
      286   2   -1.54337989 -13.65239902 -7.60302945 
      287   1    0.00167233 -12.15489912 -6.08489956 
      288   2   -1.52062989 -10.63799923 -4.56245967 
      289   1    0.00050798 -9.11925934 -3.04114978 
      290   2   -1.52312989 -7.59927945 -1.52312989 
      291   1   -0.00000000 -6.08244956 -0.00000001 
      292   2   -1.52318989 -4.56500967  1.52318989 
      293   1    0.00032585 -3.04671978  3.04671978 
      294   2   -1.52318989 -1.52318989  4.56500967 
      295   1   -0.00000001 -0.00000001  6.08244956 
      296   2   -1.52312989  1.52312989  7.59927945 
      297   1    0.00050798  3.04114978  9.11925934 
      298   2   -1.52062989  4.56245967  10.63799923 
      299   1    0.00167233  6.08489956  12.15489912 
      300   2   -1.54337989  7.60302945  13.65239902 
      301   1   -0.00734593  9.11907934  15.15819891 
      302   1    3.04098978 -15.18889890 -6.07801956 
      303   2    1.50945989 -13.68209901 -4.55546967 
      304   1    3.03562978 -12.16699912 -3.03562978 
      305   2    1.51794989 -10.64139923 -1.51794989 
      306   1    3.04114978 -9.11925934 -0.00050798 
      307   2    1.52312989 -7.59927945  1.52312989 
      308   1    3.04772978 -6.08730956  3.04772978 
      309   2    1.52391989 -4.56806967  4.56806967 
      310   1    3.04772978 -3.04772978  6.08730956 
      311   2    1.52312989 -1.52312989  7.59927945 
      312   1    3.04114978  0.00050798  9.11925934 
      313   2    1.51794989  1.51794989  10.64139923 
      314   1    3.03562978  3.03562978  12.16699912 
      315   2    1.50945989  4.55546967  13.68209901 
      316   1    3.04098978  6.07801956  15.18889890 
      317   1    6.07801956 -15.18889890 -3.04098978 
      318   2    4.55546967 -13.68209901 -1.50945989 
      319   1    6.08489956 -12.15489912 -0.00167233 
      320   2    4.56245967 -10.63799923  1.52062989 
      321   1    6.08927956 -9.12791934  3.04685978 
      322   2    4.56937967 -7.60684945  4.56937967 
      323   1    6.09590956 -6.09590956  6.09590956 
      324   2    4.56937967 -4.56937967  7.60684945 
      325   1    6.08927956 -3.04685978  9.12791934 
      326   2    4.56245967 -1.52062989  10.63799923 
      327   1    6.08489956  0.00167233  12.15489912 
      328   2    4.55546967  1.50945989  13.68209901 
      329   1    6.07801956  3.04098978  15.18889890 
      330   1    9.11907934 -15.15819891  0.00734592 
      331   2    7.60302945 -13.65239902  1.54337989 
      332   1    9.14805934 -12.17309912  3.08606978 
      333   2    7.60370945 -10.64799923  4.57601967 
      334   1    9.13619934 -9.13619934  6.09193956 
      335   2    7.61873945 -7.61873945  7.61873945 
      336   1    9.13619934 -6.09193956  9.13619934 
      337   2    7.60370945 -4.57601967  10.64799923 
      338   1    9.14805934 -3.08606978  12.17309912 
      339   2    7.60302945 -1.54337989  13.65239902 
      340   1    9.11907934 -0.00734593  15.15819891 
      341   2    10.66699923 -13.65789901  4.67297966 
      342   1    12.12339912 -12.12339912  6.06576956 
      343   2    10.68779923 -10.68779923  7.55500945 
      344   1    12.14599912 -9.09325934  9.09325934 
      345   2    10.68779923 -7.55500945  10.68779923 
      346   1    12.12339912 -6.06576956  12.12339912 
      347   2    10.66699923 -4.67297966  13.65789901 
      348   1   -12.15499912 -0.00819861 -12.15499912 
      349   2   -13.67739901  1.54587989 -10.65819923 
      350   1   -12.16459912  3.07182978 -9.13259934 
      351   2   -13.71149901  4.59098967 -7.62856945 
      352   1   -12.18209912  6.07947956 -6.07947956 
      353   2   -13.71149901  7.62856945 -4.59098967 
      354   1   -12.16459912  9.13259934 -3.07182978 
      355   2   -13.67739901  10.65819923 -1.54587989 
      356   1   -12.15499912  12.15499912  0.00819861 
      357   2   -10.66699923 -4.67297966 -13.65789901 
      358   1   -9.14805934 -3.08606978 -12.17309912 
      359   2   -10.64249923 -1.54506989 -10.64249923 
      360   1   -9.13224934 -0.00038246 -9.13224934 
      361   2   -10.65159923  1.53289989 -7.61654945 
      362   1   -9.13091934  3.04310978 -6.08402956 
      363   2   -10.65509923  4.56117967 -4.56117967 
      364   1   -9.13091934  6.08402956 -3.04310978 
      365   2   -10.65159923  7.61654945 -1.53289989 
      366   1   -9.13224934  9.13224934  0.00038246 
      367   2   -10.64249923  10.64249923  1.54506989 
      368   1   -9.14805934  12.17309912  3.08606978 
      369   2   -10.66699923  13.65789901  4.67297966 
      370   2   -7.59812945 -7.59812945 -13.74799901 
      371   1   -6.09244956 -6.09244956 -12.18239912 
      372   2   -7.60370945 -4.57601967 -10.64799923 
      373   1   -6.08927956 -3.04685978 -9.12791934 
      374   2   -7.61034945 -1.52170989 -7.61034945 
      375   1   -6.08860956 -0.00067283 -6.08860956 
      376   2   -7.60617945  1.52316989 -4.56679967 
      377   1   -6.08603956  3.04467978 -3.04467978 
      378   2   -7.60617945  4.56679967 -1.52316989 
      379   1   -6.08860956  6.08860956  0.00067283 
      380   2   -7.61034945  7.61034945  1.52170989 
      381   1   -6.08927956  9.12791934  3.04685978 
      382   2   -7.60370945  10.64799923  4.57601967 
      383   1   -6.09244956  12.18239912  6.09244956 
      384   2   -7.59812945  13.74799901  7.59812945 
      385   2   -4.67297966 -10.66699923 -13.65789901 
      386   1   -3.08606978 -9.14805934 -12.17309912 
      387   2   -4.57601967 -7.60370945 -10.64799923 
      388   1   -3.04685978 -6.08927956 -9.12791934 
      389   2   -4.56937967 -4.56937967 -7.60684945 
      390   1   -3.04772978 -3.04772978 -6.08730956 
      391   2   -4.56806967 -1.52391989 -4.56806967 
      392   1   -3.04671978 -0.00032586 -3.04671978 
      393   2   -4.56500967  1.52318989 -1.52318989 
      394   1   -3.04671978  3.04671978  0.00032585 
      395   2   -4.56806967  4.56806967  1.52391989 
      396   1   -3.04772978  6.08730956  3.04772978 
      397   2   -4.56937967  7.60684945  4.56937967 
      398   1   -3.04685978  9.12791934  6.08927956 
      399   2   -4.57601967  10.64799923  7.60370945 
      400   1   -3.08606978  12.17309912  9.14805934 
      401   2   -4.67297966  13.65789901  10.66699923 
      402   1   -0.00819861 -12.15499912 -12.15499912 
      403   2   -1.54506989 -10.64249923 -10.64249923 
      404   1   -0.00038246 -9.13224934 -9.13224934 
      405   2   -1.52170989 -7.61034945 -7.61034945 
      406   1   -0.00067283 -6.08860956 -6.08860956 
      407   2   -1.52391989 -4.56806967 -4.56806967 
      408   1   -0.00032585 -3.04671978 -3.04671978 
      409   2   -1.52540989 -1.52540989 -1.52540989 
      410   1    0.00000001  0.00000001  0.00000001 
      411   2   -1.52540989  1.52540989  1.52540989 
      412   1   -0.00032586  3.04671978  3.04671978 
      413   2   -1.52391989  4.56806967  4.56806967 
      414   1   -0.00067283  6.08860956  6.08860956 
      415   2   -1.52170989  7.61034945  7.61034945 
      416   1   -0.00038246  9.13224934  9.13224934 
      417   2   -1.54506989  10.64249923  10.64249923 
      418   1   -0.00819861  12.15499912  12.15499912 
      419   2    1.54587989 -13.67739901 -10.65819923 
      420   1    3.07182978 -12.16459912 -9.13259934 
      421   2    1.53289989 -10.65159923 -7.61654945 
      422   1    3.04310978 -9.13091934 -6.08402956 
      423   2    1.52316989 -7.60617945 -4.56679967 
      424   1    3.04467978 -6.08603956 -3.04467978 
      425   2    1.52318989 -4.56500967 -1.52318989 
      426   1    3.04671978 -3.04671978  0.00032587 
      427   2    1.52540989 -1.52540989  1.52540989 
      428   1    3.04671978 -0.00032586  3.04671978 
      429   2    1.52318989  1.52318989  4.56500967 
      430   1    3.04467978  3.04467978  6.08603956 
      431   2    1.52316989  4.56679967  7.60617945 
      432   1    3.04310978  6.08402956  9.13091934 
      433   2    1.53289989  7.61654945  10.65159923 
      434   1    3.07182978  9.13259934  12.16459912 
      435   2    1.54587989  10.65819923  13.67739901 
      436   2    4.59098967 -13.71149901 -7.62856945 
      437   1    6.07947956 -12.18209912 -6.07947956 
      438   2    4.56117967 -10.65509923 -4.56117967 
      439   1    6.08402956 -9.13091934 -3.04310978 
      440   2    4.56679967 -7.60617945 -1.52316989 
      441   1    6.08860956 -6.08860956  0.00067283 
      442   2    4.56806967 -4.56806967  1.52391989 
      443   1    6.08730956 -3.04772978  3.04772978 
      444   2    4.56806967 -1.52391989  4.56806967 
      445   1    6.08860956 -0.00067283  6.08860956 
      446   2    4.56679967  1.52316989  7.60617945 
      447   1    6.08402956  3.04310978  9.13091934 
      448   2    4.56117967  4.56117967  10.65509923 
      449   1    6.07947956  6.07947956  12.18209912 
      450   2    4.59098967  7.62856945  13.71149901 
      451   2    7.62856945 -13.71149901 -4.59098967 
      452   1    9.13259934 -12.16459912 -3.07182978 
      453   2    7.61654945 -10.65159923 -1.53289989 
      454   1    9.13224934 -9.13224934  0.00038246 
      455   2    7.61034945 -7.61034945  1.52170989 
      456   1    9.12791934 -6.08927956  3.04685978 
      457   2    7.60684945 -4.56937967  4.56937967 
      458   1    9.12791934 -3.04685978  6.08927956 
      459   2    7.61034945 -1.52170989  7.61034945 
      460   1    9.13224934 -0.00038246  9.13224934 
      461   2    7.61654945  1.53289989  10.65159923 
      462   1    9.13259934  3.07182978  12.16459912 
      463   2    7.62856945  4.59098967  13.71149901 
      464   2    10.65819923 -13.67739901 -1.54587989 
      465   1    12.15499912 -12.15499912  0.00819861 
      466   2    10.64249923 -10.64249923  1.54506989 
      467   1    12.17309912 -9.14805934  3.08606978 
      468   2    10.64799923 -7.60370945  4.57601967 
      469   1    12.18239912 -6.09244956  6.09244956 
      470   2    10.64799923 -4.57601967  7.60370945 
      471   1    12.17309912 -3.08606978  9.14805934 
      472   2    10.64249923 -1.54506989  10.64249923 
      473   1    12.15499912 -0.00819861  12.15499912 
      474   2    10.65819923  1.54587989  13.67739901 
      475   2    13.65789901 -10.66699923  4.67297966 
      476   2    13.74799901 -7.59812945  7.59812945 
      477   2    13.65789901 -4.67297966  10.66699923 
      478   1   -9.11907934 -0.00734592 -15.15819891 
      479   2   -10.65819923  1.54587989 -13.67739901 
      480   1   -9.13259934  3.07182978 -12.16459912 
      481   2   -10.68089923  4.61186966 -10.68089923 
      482   1   -9.12880934  6.07295956 -9.12880934 
      483   2   -10.62949924  7.58325945 -7.58325945 
      484   1   -9.12880934  9.12880934 -6.07295956 
      485   2   -10.68089923  10.68089923 -4.61186966 
      486   1   -9.13259934  12.16459912 -3.07182978 
      487   2   -10.65819923  13.67739901 -1.54587989 
      488   1   -9.11907934  15.15819891  0.00734593 
      489   1   -6.08465956 -3.04930978 -15.19209890 
      490   2   -7.60302945 -1.54337989 -13.65239902 
      491   1   -6.08489956  0.00167233 -12.15489912 
      492   2   -7.61654945  1.53289989 -10.65159923 
      493   1   -6.08402956  3.04310978 -9.13091934 
      494   2   -7.60579945  4.55866967 -7.60579945 
      495   1   -6.08723956  6.08723956 -6.08723956 
      496   2   -7.60579945  7.60579945 -4.55866967 
      497   1   -6.08402956  9.13091934 -3.04310978 
      498   2   -7.61654945  10.65159923 -1.53289989 
      499   1   -6.08489956  12.15489912 -0.00167233 
      500   2   -7.60302945  13.65239902  1.54337989 
      501   1   -6.08465956  15.19209890  3.04930978 
      502   1   -3.04930978 -6.08465956 -15.19209890 
      503   2   -4.55589967 -4.55589967 -13.66929902 
      504   1   -3.03286978 -3.03286978 -12.15859912 
      505   2   -4.56245967 -1.52062989 -10.63799923 
      506   1   -3.04114978  0.00050798 -9.11925934 
      507   2   -4.56679967  1.52316989 -7.60617945 
      508   1   -3.04467978  3.04467978 -6.08603956 
      509   2   -4.56635967  4.56635967 -4.56635967 
      510   1   -3.04467978  6.08603956 -3.04467978 
      511   2   -4.56679967  7.60617945 -1.52316989 
      512   1   -3.04114978  9.11925934 -0.00050798 
      513   2   -4.56245967  10.63799923  1.52062989 
      514   1   -3.03286978  12.15859912  3.03286978 
      515   2   -4.55589967  13.66929902  4.55589967 
      516   1   -3.04930978  15.19209890  6.08465956 
      517   1   -0.00734592 -9.11907934 -15.15819891 
      518   2   -1.54337989 -7.60302945 -13.65239902 
      519   1    0.00167233 -6.08489956 -12.15489912 
      520   2   -1.52062989 -4.56245967 -10.63799923 
      521   1    0.00050798 -3.04114978 -9.11925934 
      522   2   -1.52312989 -1.52312989 -7.59927945 
      523   1    0.00000001  0.00000000 -6.08244956 
      524   2   -1.52318989  1.52318989 -4.56500967 
      525   1    0.00032586  3.04671978 -3.04671978 
      526   2   -1.52318989  4.56500967 -1.52318989 
      527   1   -0.00000001  6.08244956 -0.00000000 
      528   2   -1.52312989  7.59927945  1.52312989 
      529   1    0.00050798  9.11925934  3.04114978 
      530   2   -1.52062989  10.63799923  4.56245967 
      531   1    0.00167233  12.15489912  6.08489956 
      532   2   -1.54337989  13.65239902  7.60302945 
      533   1   -0.00734592  15.15819891  9.11907934 
      534   2    1.54587989 -10.65819923 -13.67739901 
      535   1    3.07182978 -9.13259934 -12.16459912 
      536   2    1.53289989 -7.61654945 -10.65159923 
      537   1    3.04310978 -6.08402956 -9.13091934 
      538   2    1.52316989 -4.56679967 -7.60617945 
      539   1    3.04467978 -3.04467978 -6.08603956 
      540   2    1.52318989 -1.52318989 -4.56500967 
      541   1    3.04671978  0.00032587 -3.04671978 
      542   2    1.52540989  1.52540989 -1.52540989 
      543   1    3.04671978  3.04671978 -0.00032585 
      544   2    1.52318989  4.56500967  1.52318989 
      545   1    3.04467978  6.08603956  3.04467978 
      546   2    1.52316989  7.60617945  4.56679967 
      547   1    3.04310978  9.13091934  6.08402956 
      548   2    1.53289989  10.65159923  7.61654945 
      549   1    3.07182978  12.16459912  9.13259934 
      550   2    1.54587989  13.67739901  10.65819923 
      551   2    4.61186966 -10.68089923 -10.68089923 
      552   1    6.07295956 -9.12880934 -9.12880934 
      553   2    4.55866967 -7.60579945 -7.60579945 