LAMMPS configuration data file

  4001 atoms

  3 atom types

  -47.635355  47.635355  xlo xhi
  -47.635355  47.635355  ylo yhi
  -47.635355  47.635355  zlo zhi

 Masses

  1   32.065
  2   112.411
  3   78.960

 Atoms

        1   1   -23.27187800 -11.63593900  11.63593900 
        2   1   -20.36289325 -17.45390850  8.72695425 
        3   1   -20.36289325 -14.54492375  11.63593900 
        4   2   -21.81738563 -13.09043138  13.09043137 
        5   1   -20.36289325 -11.63593900  14.54492375 
        6   1   -20.36289325 -8.72695425  17.45390850 
        7   1   -17.45390850 -20.36289325  8.72695425 
        8   2   -18.90840088 -18.90840088  10.18144662 
        9   1   -17.45390850 -17.45390850  11.63593900 
       10   2   -18.90840088 -15.99941613  13.09043137 
       11   1   -17.45390850 -14.54492375  14.54492375 
       12   2   -18.90840088 -13.09043138  15.99941612 
       13   1   -17.45390850 -11.63593900  17.45390850 
       14   2   -18.90840088 -10.18144663  18.90840087 
       15   1   -17.45390850 -8.72695425  20.36289325 
       16   1   -14.54492375 -20.36289325  11.63593900 
       17   2   -15.99941613 -18.90840088  13.09043137 
       18   1   -14.54492375 -17.45390850  14.54492375 
       19   2   -15.99941613 -15.99941613  15.99941612 
       20   1   -14.54492375 -14.54492375  17.45390850 
       21   2   -15.99941613 -13.09043138  18.90840087 
       22   1   -14.54492375 -11.63593900  20.36289325 
       23   1   -11.63593900 -23.27187800  11.63593900 
       24   2   -13.09043138 -21.81738563  13.09043137 
       25   1   -11.63593900 -20.36289325  14.54492375 
       26   2   -13.09043138 -18.90840088  15.99941612 
       27   1   -11.63593900 -17.45390850  17.45390850 
       28   2   -13.09043138 -15.99941613  18.90840087 
       29   1   -11.63593900 -14.54492375  20.36289325 
       30   2   -13.09043138 -13.09043138  21.81738562 
       31   1   -11.63593900 -11.63593900  23.27187800 
       32   1   -8.72695425 -20.36289325  17.45390850 
       33   2   -10.18144663 -18.90840088  18.90840087 
       34   1   -8.72695425 -17.45390850  20.36289325 
       35   1   -26.18086275 -8.72695425  5.81796950 
       36   1   -26.18086275 -5.81796950  8.72695425 
       37   1   -23.27187800 -14.54492375  2.90898475 
       38   2   -24.72637038 -13.09043138  4.36347712 
       39   1   -23.27187800 -11.63593900  5.81796950 
       40   2   -24.72637038 -10.18144663  7.27246187 
       41   1   -23.27187800 -8.72695425  8.72695425 
       42   2   -24.72637038 -7.27246188  10.18144662 
       43   1   -23.27187800 -5.81796950  11.63593900 
       44   2   -24.72637038 -4.36347713  13.09043137 
       45   1   -23.27187800 -2.90898475  14.54492375 
       46   1   -20.36289325 -17.45390850  2.90898475 
       47   2   -21.81738563 -15.99941613  4.36347712 
       48   1   -20.36289325 -14.54492375  5.81796950 
       49   2   -21.81738563 -13.09043138  7.27246187 
       50   1   -20.36289325 -11.63593900  8.72695425 
       51   2   -21.81738563 -10.18144663  10.18144662 
       52   1   -20.36289325 -8.72695425  11.63593900 
       53   2   -21.81738563 -7.27246188  13.09043137 
       54   1   -20.36289325 -5.81796950  14.54492375 
       55   2   -21.81738563 -4.36347713  15.99941612 
       56   1   -20.36289325 -2.90898475  17.45390850 
       57   1   -17.45390850 -20.36289325  2.90898475 
       58   2   -18.90840088 -18.90840088  4.36347712 
       59   1   -17.45390850 -17.45390850  5.81796950 
       60   2   -18.90840088 -15.99941613  7.27246187 
       61   1   -17.45390850 -14.54492375  8.72695425 
       62   2   -18.90840088 -13.09043138  10.18144662 
       63   1   -17.45390850 -11.63593900  11.63593900 
       64   2   -18.90840088 -10.18144663  13.09043137 
       65   1   -17.45390850 -8.72695425  14.54492375 
       66   2   -18.90840088 -7.27246188  15.99941612 
       67   1   -17.45390850 -5.81796950  17.45390850 
       68   2   -18.90840088 -4.36347713  18.90840087 
       69   1   -17.45390850 -2.90898475  20.36289325 
       70   1   -14.54492375 -23.27187800  2.90898475 
       71   2   -15.99941613 -21.81738563  4.36347712 
       72   1   -14.54492375 -20.36289325  5.81796950 
       73   2   -15.99941613 -18.90840088  7.27246187 
       74   1   -14.54492375 -17.45390850  8.72695425 
       75   2   -15.99941613 -15.99941613  10.18144662 
       76   1   -14.54492375 -14.54492375  11.63593900 
       77   2   -15.99941613 -13.09043138  13.09043137 
       78   1   -14.54492375 -11.63593900  14.54492375 
       79   2   -15.99941613 -10.18144663  15.99941612 
       80   1   -14.54492375 -8.72695425  17.45390850 
       81   2   -15.99941613 -7.27246188  18.90840087 
       82   1   -14.54492375 -5.81796950  20.36289325 
       83   2   -15.99941613 -4.36347713  21.81738562 
       84   1   -14.54492375 -2.90898475  23.27187800 
       85   2   -13.09043138 -24.72637038  4.36347712 
       86   1   -11.63593900 -23.27187800  5.81796950 
       87   2   -13.09043138 -21.81738563  7.27246187 
       88   1   -11.63593900 -20.36289325  8.72695425 
       89   2   -13.09043138 -18.90840088  10.18144662 
       90   1   -11.63593900 -17.45390850  11.63593900 
       91   2   -13.09043138 -15.99941613  13.09043137 
       92   1   -11.63593900 -14.54492375  14.54492375 
       93   2   -13.09043138 -13.09043138  15.99941612 
       94   1   -11.63593900 -11.63593900  17.45390850 
       95   2   -13.09043138 -10.18144663  18.90840087 
       96   1   -11.63593900 -8.72695425  20.36289325 
       97   2   -13.09043138 -7.27246188  21.81738562 
       98   1   -11.63593900 -5.81796950  23.27187800 
       99   2   -13.09043138 -4.36347713  24.72637037 
      100   1   -8.72695425 -26.18086275  5.81796950 
      101   2   -10.18144663 -24.72637038  7.27246187 
      102   1   -8.72695425 -23.27187800  8.72695425 
      103   2   -10.18144663 -21.81738563  10.18144662 
      104   1   -8.72695425 -20.36289325  11.63593900 
      105   2   -10.18144663 -18.90840088  13.09043137 
      106   1   -8.72695425 -17.45390850  14.54492375 
      107   2   -10.18144663 -15.99941613  15.99941612 
      108   1   -8.72695425 -14.54492375  17.45390850 
      109   2   -10.18144663 -13.09043138  18.90840087 
      110   1   -8.72695425 -11.63593900  20.36289325 
      111   2   -10.18144663 -10.18144663  21.81738562 
      112   1   -8.72695425 -8.72695425  23.27187800 
      113   2   -10.18144663 -7.27246188  24.72637037 
      114   1   -8.72695425 -5.81796950  26.18086275 
      115   1   -5.81796950 -26.18086275  8.72695425 
      116   2   -7.27246188 -24.72637038  10.18144662 
      117   1   -5.81796950 -23.27187800  11.63593900 
      118   2   -7.27246188 -21.81738563  13.09043137 
      119   1   -5.81796950 -20.36289325  14.54492375 
      120   2   -7.27246188 -18.90840088  15.99941612 
      121   1   -5.81796950 -17.45390850  17.45390850 
      122   2   -7.27246188 -15.99941613  18.90840087 
      123   1   -5.81796950 -14.54492375  20.36289325 
      124   2   -7.27246188 -13.09043138  21.81738562 
      125   1   -5.81796950 -11.63593900  23.27187800 
      126   2   -7.27246188 -10.18144663  24.72637037 
      127   1   -5.81796950 -8.72695425  26.18086275 
      128   2   -4.36347713 -24.72637038  13.09043137 
      129   1   -2.90898475 -23.27187800  14.54492375 
      130   2   -4.36347713 -21.81738563  15.99941612 
      131   1   -2.90898475 -20.36289325  17.45390850 
      132   2   -4.36347713 -18.90840088  18.90840087 
      133   1   -2.90898475 -17.45390850  20.36289325 
      134   2   -4.36347713 -15.99941613  21.81738562 
      135   1   -2.90898475 -14.54492375  23.27187800 
      136   2   -4.36347713 -13.09043138  24.72637037 
      137   1   -26.18086275 -8.72695425 -0.00000000 
      138   2   -27.63535513 -7.27246188  1.45449237 
      139   1   -26.18086275 -5.81796950  2.90898475 
      140   2   -27.63535513 -4.36347713  4.36347712 
      141   1   -26.18086275 -2.90898475  5.81796950 
      142   2   -27.63535513 -1.45449238  7.27246187 
      143   1   -26.18086275 -0.00000000  8.72695425 
      144   1   -23.27187800 -14.54492375 -2.90898475 
      145   2   -24.72637038 -13.09043138 -1.45449238 
      146   1   -23.27187800 -11.63593900 -0.00000000 
      147   2   -24.72637038 -10.18144663  1.45449237 
      148   1   -23.27187800 -8.72695425  2.90898475 
      149   2   -24.72637038 -7.27246188  4.36347712 
      150   1   -23.27187800 -5.81796950  5.81796950 
      151   2   -24.72637038 -4.36347713  7.27246187 
      152   1   -23.27187800 -2.90898475  8.72695425 
      153   2   -24.72637038 -1.45449238  10.18144662 
      154   1   -23.27187800 -0.00000000  11.63593900 
      155   2   -24.72637038  1.45449237  13.09043137 
      156   1   -23.27187800  2.90898475  14.54492375 
      157   1   -20.36289325 -17.45390850 -2.90898475 
      158   2   -21.81738563 -15.99941613 -1.45449238 
      159   1   -20.36289325 -14.54492375 -0.00000000 
      160   2   -21.81738563 -13.09043138  1.45449237 
      161   1   -20.36289325 -11.63593900  2.90898475 
      162   2   -21.81738563 -10.18144663  4.36347712 
      163   1   -20.36289325 -8.72695425  5.81796950 
      164   2   -21.81738563 -7.27246188  7.27246187 
      165   1   -20.36289325 -5.81796950  8.72695425 
      166   2   -21.81738563 -4.36347713  10.18144662 
      167   1   -20.36289325 -2.90898475  11.63593900 
      168   2   -21.81738563 -1.45449238  13.09043137 
      169   1   -20.36289325 -0.00000000  14.54492375 
      170   2   -21.81738563  1.45449237  15.99941612 
      171   1   -20.36289325  2.90898475  17.45390850 
      172   1   -17.45390850 -20.36289325 -2.90898475 
      173   2   -18.90840088 -18.90840088 -1.45449238 
      174   1   -17.45390850 -17.45390850 -0.00000000 
      175   2   -18.90840088 -15.99941613  1.45449237 
      176   1   -17.45390850 -14.54492375  2.90898475 
      177   2   -18.90840088 -13.09043138  4.36347712 
      178   1   -17.45390850 -11.63593900  5.81796950 
      179   2   -18.90840088 -10.18144663  7.27246187 
      180   1   -17.45390850 -8.72695425  8.72695425 
      181   2   -18.90840088 -7.27246188  10.18144662 
      182   1   -17.45390850 -5.81796950  11.63593900 
      183   2   -18.90840088 -4.36347713  13.09043137 
      184   1   -17.45390850 -2.90898475  14.54492375 
      185   2   -18.90840088 -1.45449238  15.99941612 
      186   1   -17.45390850 -0.00000000  17.45390850 
      187   2   -18.90840088  1.45449237  18.90840087 
      188   1   -17.45390850  2.90898475  20.36289325 
      189   1   -14.54492375 -23.27187800 -2.90898475 
      190   2   -15.99941613 -21.81738563 -1.45449238 
      191   1   -14.54492375 -20.36289325 -0.00000000 
      192   2   -15.99941613 -18.90840088  1.45449237 
      193   1   -14.54492375 -17.45390850  2.90898475 
      194   2   -15.99941613 -15.99941613  4.36347712 
      195   1   -14.54492375 -14.54492375  5.81796950 
      196   2   -15.99941613 -13.09043138  7.27246187 
      197   1   -14.54492375 -11.63593900  8.72695425 
      198   2   -15.99941613 -10.18144663  10.18144662 
      199   1   -14.54492375 -8.72695425  11.63593900 
      200   2   -15.99941613 -7.27246188  13.09043137 
      201   1   -14.54492375 -5.81796950  14.54492375 
      202   2   -15.99941613 -4.36347713  15.99941612 
      203   1   -14.54492375 -2.90898475  17.45390850 
      204   2   -15.99941613 -1.45449238  18.90840087 
      205   1   -14.54492375 -0.00000000  20.36289325 
      206   2   -15.99941613  1.45449237  21.81738562 
      207   1   -14.54492375  2.90898475  23.27187800 
      208   2   -13.09043138 -24.72637038 -1.45449238 
      209   1   -11.63593900 -23.27187800 -0.00000000 
      210   2   -13.09043138 -21.81738563  1.45449237 
      211   1   -11.63593900 -20.36289325  2.90898475 
      212   2   -13.09043138 -18.90840088  4.36347712 
      213   1   -11.63593900 -17.45390850  5.81796950 
      214   2   -13.09043138 -15.99941613  7.27246187 
      215   1   -11.63593900 -14.54492375  8.72695425 
      216   2   -13.09043138 -13.09043138  10.18144662 
      217   1   -11.63593900 -11.63593900  11.63593900 
      218   2   -13.09043138 -10.18144663  13.09043137 
      219   1   -11.63593900 -8.72695425  14.54492375 
      220   2   -13.09043138 -7.27246188  15.99941612 
      221   1   -11.63593900 -5.81796950  17.45390850 
      222   2   -13.09043138 -4.36347713  18.90840087 
      223   1   -11.63593900 -2.90898475  20.36289325 
      224   2   -13.09043138 -1.45449238  21.81738562 
      225   1   -11.63593900 -0.00000000  23.27187800 
      226   2   -13.09043138  1.45449237  24.72637037 
      227   1   -8.72695425 -26.18086275 -0.00000000 
      228   2   -10.18144663 -24.72637038  1.45449237 
      229   1   -8.72695425 -23.27187800  2.90898475 
      230   2   -10.18144663 -21.81738563  4.36347712 
      231   1   -8.72695425 -20.36289325  5.81796950 
      232   2   -10.18144663 -18.90840088  7.27246187 
      233   1   -8.72695425 -17.45390850  8.72695425 
      234   2   -10.18144663 -15.99941613  10.18144662 
      235   1   -8.72695425 -14.54492375  11.63593900 
      236   2   -10.18144663 -13.09043138  13.09043137 
      237   1   -8.72695425 -11.63593900  14.54492375 
      238   2   -10.18144663 -10.18144663  15.99941612 
      239   1   -8.72695425 -8.72695425  17.45390850 
      240   2   -10.18144663 -7.27246188  18.90840087 
      241   1   -8.72695425 -5.81796950  20.36289325 
      242   2   -10.18144663 -4.36347713  21.81738562 
      243   1   -8.72695425 -2.90898475  23.27187800 
      244   2   -10.18144663 -1.45449238  24.72637037 
      245   1   -8.72695425 -0.00000000  26.18086275 
      246   2   -7.27246188 -27.63535513  1.45449237 
      247   1   -5.81796950 -26.18086275  2.90898475 
      248   2   -7.27246188 -24.72637038  4.36347712 
      249   1   -5.81796950 -23.27187800  5.81796950 
      250   2   -7.27246188 -21.81738563  7.27246187 
      251   1   -5.81796950 -20.36289325  8.72695425 
      252   2   -7.27246188 -18.90840088  10.18144662 
      253   1   -5.81796950 -17.45390850  11.63593900 
      254   2   -7.27246188 -15.99941613  13.09043137 
      255   1   -5.81796950 -14.54492375  14.54492375 
      256   2   -7.27246188 -13.09043138  15.99941612 
      257   1   -5.81796950 -11.63593900  17.45390850 
      258   2   -7.27246188 -10.18144663  18.90840087 
      259   1   -5.81796950 -8.72695425  20.36289325 
      260   2   -7.27246188 -7.27246188  21.81738562 
      261   1   -5.81796950 -5.81796950  23.27187800 
      262   2   -7.27246188 -4.36347713  24.72637037 
      263   1   -5.81796950 -2.90898475  26.18086275 
      264   2   -7.27246188 -1.45449238  27.63535512 
      265   2   -4.36347713 -27.63535513  4.36347712 
      266   1   -2.90898475 -26.18086275  5.81796950 
      267   2   -4.36347713 -24.72637038  7.27246187 
      268   1   -2.90898475 -23.27187800  8.72695425 
      269   2   -4.36347713 -21.81738563  10.18144662 
      270   1   -2.90898475 -20.36289325  11.63593900 
      271   2   -4.36347713 -18.90840088  13.09043137 
      272   1   -2.90898475 -17.45390850  14.54492375 
      273   2   -4.36347713 -15.99941613  15.99941612 
      274   1   -2.90898475 -14.54492375  17.45390850 
      275   2   -4.36347713 -13.09043138  18.90840087 
      276   1   -2.90898475 -11.63593900  20.36289325 
      277   2   -4.36347713 -10.18144663  21.81738562 
      278   1   -2.90898475 -8.72695425  23.27187800 
      279   2   -4.36347713 -7.27246188  24.72637037 
      280   1   -2.90898475 -5.81796950  26.18086275 
      281   2   -4.36347713 -4.36347713  27.63535512 
      282   2   -1.45449238 -27.63535513  7.27246187 
      283   1   -0.00000000 -26.18086275  8.72695425 
      284   2   -1.45449238 -24.72637038  10.18144662 
      285   1   -0.00000000 -23.27187800  11.63593900 
      286   2   -1.45449238 -21.81738563  13.09043137 
      287   1   -0.00000000 -20.36289325  14.54492375 
      288   2   -1.45449238 -18.90840088  15.99941612 
      289   1   -0.00000000 -17.45390850  17.45390850 
      290   2   -1.45449238 -15.99941613  18.90840087 
      291   1   -0.00000000 -14.54492375  20.36289325 
      292   2   -1.45449238 -13.09043138  21.81738562 
      293   1   -0.00000000 -11.63593900  23.27187800 
      294   2   -1.45449238 -10.18144663  24.72637037 
      295   1   -0.00000000 -8.72695425  26.18086275 
      296   2   -1.45449238 -7.27246188  27.63535512 
      297   2    1.45449237 -24.72637038  13.09043137 
      298   1    2.90898475 -23.27187800  14.54492375 
      299   2    1.45449237 -21.81738563  15.99941612 
      300   1    2.90898475 -20.36289325  17.45390850 
      301   2    1.45449237 -18.90840088  18.90840087 
      302   1    2.90898475 -17.45390850  20.36289325 
      303   2    1.45449237 -15.99941613  21.81738562 
      304   1    2.90898475 -14.54492375  23.27187800 
      305   2    1.45449237 -13.09043138  24.72637037 
      306   1   -26.18086275 -8.72695425 -5.81796950 
      307   1   -26.18086275 -5.81796950 -2.90898475 
      308   2   -27.63535513 -4.36347713 -1.45449238 
      309   1   -26.18086275 -2.90898475 -0.00000000 
      310   2   -27.63535513 -1.45449238  1.45449237 
      311   1   -26.18086275 -0.00000000  2.90898475 
      312   2   -27.63535513  1.45449237  4.36347712 
      313   1   -26.18086275  2.90898475  5.81796950 
      314   1   -26.18086275  5.81796950  8.72695425 
      315   1   -23.27187800 -11.63593900 -5.81796950 
      316   2   -24.72637038 -10.18144663 -4.36347713 
      317   1   -23.27187800 -8.72695425 -2.90898475 
      318   2   -24.72637038 -7.27246188 -1.45449238 
      319   1   -23.27187800 -5.81796950 -0.00000000 
      320   2   -24.72637038 -4.36347713  1.45449237 
      321   1   -23.27187800 -2.90898475  2.90898475 
      322   2   -24.72637038 -1.45449238  4.36347712 
      323   1   -23.27187800 -0.00000000  5.81796950 
      324   2   -24.72637038  1.45449237  7.27246187 
      325   1   -23.27187800  2.90898475  8.72695425 
      326   2   -24.72637038  4.36347712  10.18144662 
      327   1   -23.27187800  5.81796950  11.63593900 
      328   1   -20.36289325 -17.45390850 -8.72695425 
      329   2   -21.81738563 -15.99941613 -7.27246188 
      330   1   -20.36289325 -14.54492375 -5.81796950 
      331   2   -21.81738563 -13.09043138 -4.36347713 
      332   1   -20.36289325 -11.63593900 -2.90898475 
      333   2   -21.81738563 -10.18144663 -1.45449238 
      334   1   -20.36289325 -8.72695425 -0.00000000 
      335   2   -21.81738563 -7.27246188  1.45449237 
      336   1   -20.36289325 -5.81796950  2.90898475 
      337   2   -21.81738563 -4.36347713  4.36347712 
      338   1   -20.36289325 -2.90898475  5.81796950 
      339   2   -21.81738563 -1.45449238  7.27246187 
      340   1   -20.36289325 -0.00000000  8.72695425 
      341   2   -21.81738563  1.45449237  10.18144662 
      342   1   -20.36289325  2.90898475  11.63593900 
      343   2   -21.81738563  4.36347712  13.09043137 
      344   1   -20.36289325  5.81796950  14.54492375 
      345   2   -21.81738563  7.27246187  15.99941612 
      346   1   -20.36289325  8.72695425  17.45390850 
      347   1   -17.45390850 -20.36289325 -8.72695425 
      348   2   -18.90840088 -18.90840088 -7.27246188 
      349   1   -17.45390850 -17.45390850 -5.81796950 
      350   2   -18.90840088 -15.99941613 -4.36347713 
      351   1   -17.45390850 -14.54492375 -2.90898475 
      352   2   -18.90840088 -13.09043138 -1.45449238 
      353   1   -17.45390850 -11.63593900 -0.00000000 
      354   2   -18.90840088 -10.18144663  1.45449237 
      355   1   -17.45390850 -8.72695425  2.90898475 
      356   2   -18.90840088 -7.27246188  4.36347712 
      357   1   -17.45390850 -5.81796950  5.81796950 
      358   2   -18.90840088 -4.36347713  7.27246187 
      359   1   -17.45390850 -2.90898475  8.72695425 
      360   2   -18.90840088 -1.45449238  10.18144662 
      361   1   -17.45390850 -0.00000000  11.63593900 
      362   2   -18.90840088  1.45449237  13.09043137 
      363   1   -17.45390850  2.90898475  14.54492375 
      364   2   -18.90840088  4.36347712  15.99941612 
      365   1   -17.45390850  5.81796950  17.45390850 
      366   2   -18.90840088  7.27246187  18.90840087 
      367   1   -17.45390850  8.72695425  20.36289325 
      368   2   -15.99941613 -21.81738563 -7.27246188 
      369   1   -14.54492375 -20.36289325 -5.81796950 
      370   2   -15.99941613 -18.90840088 -4.36347713 
      371   1   -14.54492375 -17.45390850 -2.90898475 
      372   2   -15.99941613 -15.99941613 -1.45449238 
      373   1   -14.54492375 -14.54492375 -0.00000000 
      374   2   -15.99941613 -13.09043138  1.45449237 
      375   1   -14.54492375 -11.63593900  2.90898475 
      376   2   -15.99941613 -10.18144663  4.36347712 
      377   1   -14.54492375 -8.72695425  5.81796950 
      378   2   -15.99941613 -7.27246188  7.27246187 
      379   1   -14.54492375 -5.81796950  8.72695425 
      380   2   -15.99941613 -4.36347713  10.18144662 
      381   1   -14.54492375 -2.90898475  11.63593900 
      382   2   -15.99941613 -1.45449238  13.09043137 
      383   1   -14.54492375 -0.00000000  14.54492375 
      384   2   -15.99941613  1.45449237  15.99941612 
      385   1   -14.54492375  2.90898475  17.45390850 
      386   2   -15.99941613  4.36347712  18.90840087 
      387   1   -14.54492375  5.81796950  20.36289325 
      388   2   -15.99941613  7.27246187  21.81738562 
      389   1   -11.63593900 -23.27187800 -5.81796950 
      390   2   -13.09043138 -21.81738563 -4.36347713 
      391   1   -11.63593900 -20.36289325 -2.90898475 
      392   2   -13.09043138 -18.90840088 -1.45449238 
      393   1   -11.63593900 -17.45390850 -0.00000000 
      394   2   -13.09043138 -15.99941613  1.45449237 
      395   1   -11.63593900 -14.54492375  2.90898475 
      396   2   -13.09043138 -13.09043138  4.36347712 
      397   1   -11.63593900 -11.63593900  5.81796950 
      398   2   -13.09043138 -10.18144663  7.27246187 
      399   3   -11.63593900 -8.72695425  8.72695425 
      400   2   -13.09043138 -7.27246188  10.18144662 
      401   1   -11.63593900 -5.81796950  11.63593900 
      402   2   -13.09043138 -4.36347713  13.09043137 
      403   1   -11.63593900 -2.90898475  14.54492375 
      404   2   -13.09043138 -1.45449238  15.99941612 
      405   1   -11.63593900 -0.00000000  17.45390850 
      406   2   -13.09043138  1.45449237  18.90840087 
      407   1   -11.63593900  2.90898475  20.36289325 
      408   2   -13.09043138  4.36347712  21.81738562 
      409   1   -11.63593900  5.81796950  23.27187800 
      410   1   -8.72695425 -26.18086275 -5.81796950 
      411   2   -10.18144663 -24.72637038 -4.36347713 
      412   1   -8.72695425 -23.27187800 -2.90898475 
      413   2   -10.18144663 -21.81738563 -1.45449238 
      414   1   -8.72695425 -20.36289325 -0.00000000 
      415   2   -10.18144663 -18.90840088  1.45449237 
      416   1   -8.72695425 -17.45390850  2.90898475 
      417   2   -10.18144663 -15.99941613  4.36347712 
      418   1   -8.72695425 -14.54492375  5.81796950 
      419   2   -10.18144663 -13.09043138  7.27246187 
      420   3   -8.72695425 -11.63593900  8.72695425 
      421   2   -10.18144663 -10.18144663  10.18144662 
      422   3   -8.72695425 -8.72695425  11.63593900 
      423   2   -10.18144663 -7.27246188  13.09043137 
      424   1   -8.72695425 -5.81796950  14.54492375 
      425   2   -10.18144663 -4.36347713  15.99941612 
      426   1   -8.72695425 -2.90898475  17.45390850 
      427   2   -10.18144663 -1.45449238  18.90840087 
      428   1   -8.72695425 -0.00000000  20.36289325 
      429   2   -10.18144663  1.45449237  21.81738562 
      430   1   -8.72695425  2.90898475  23.27187800 
      431   2   -10.18144663  4.36347712  24.72637037 
      432   1   -8.72695425  5.81796950  26.18086275 
      433   1   -5.81796950 -26.18086275 -2.90898475 
      434   2   -7.27246188 -24.72637038 -1.45449238 
      435   1   -5.81796950 -23.27187800 -0.00000000 
      436   2   -7.27246188 -21.81738563  1.45449237 
      437   1   -5.81796950 -20.36289325  2.90898475 
      438   2   -7.27246188 -18.90840088  4.36347712 
      439   1   -5.81796950 -17.45390850  5.81796950 
      440   2   -7.27246188 -15.99941613  7.27246187 
      441   1   -5.81796950 -14.54492375  8.72695425 
      442   2   -7.27246188 -13.09043138  10.18144662 
      443   1   -5.81796950 -11.63593900  11.63593900 
      444   2   -7.27246188 -10.18144663  13.09043137 
      445   1   -5.81796950 -8.72695425  14.54492375 
      446   2   -7.27246188 -7.27246188  15.99941612 
      447   1   -5.81796950 -5.81796950  17.45390850 
      448   2   -7.27246188 -4.36347713  18.90840087 
      449   1   -5.81796950 -2.90898475  20.36289325 
      450   2   -7.27246188 -1.45449238  21.81738562 
      451   1   -5.81796950 -0.00000000  23.27187800 
      452   2   -7.27246188  1.45449237  24.72637037 
      453   1   -5.81796950  2.90898475  26.18086275 
      454   2   -4.36347713 -27.63535513 -1.45449238 
      455   1   -2.90898475 -26.18086275 -0.00000000 
      456   2   -4.36347713 -24.72637038  1.45449237 
      457   1   -2.90898475 -23.27187800  2.90898475 
      458   2   -4.36347713 -21.81738563  4.36347712 
      459   1   -2.90898475 -20.36289325  5.81796950 
      460   2   -4.36347713 -18.90840088  7.27246187 
      461   1   -2.90898475 -17.45390850  8.72695425 
      462   2   -4.36347713 -15.99941613  10.18144662 
      463   1   -2.90898475 -14.54492375  11.63593900 
      464   2   -4.36347713 -13.09043138  13.09043137 
      465   1   -2.90898475 -11.63593900  14.54492375 
      466   2   -4.36347713 -10.18144663  15.99941612 
      467   1   -2.90898475 -8.72695425  17.45390850 
      468   2   -4.36347713 -7.27246188  18.90840087 
      469   1   -2.90898475 -5.81796950  20.36289325 
      470   2   -4.36347713 -4.36347713  21.81738562 
      471   1   -2.90898475 -2.90898475  23.27187800 
      472   2   -4.36347713 -1.45449238  24.72637037 
      473   1   -2.90898475 -0.00000000  26.18086275 
      474   2   -4.36347713  1.45449237  27.63535512 
      475   2   -1.45449238 -27.63535513  1.45449237 
      476   1   -0.00000000 -26.18086275  2.90898475 
      477   2   -1.45449238 -24.72637038  4.36347712 
      478   1   -0.00000000 -23.27187800  5.81796950 
      479   2   -1.45449238 -21.81738563  7.27246187 
      480   1   -0.00000000 -20.36289325  8.72695425 
      481   2   -1.45449238 -18.90840088  10.18144662 
      482   1   -0.00000000 -17.45390850  11.63593900 
      483   2   -1.45449238 -15.99941613  13.09043137 
      484   1   -0.00000000 -14.54492375  14.54492375 
      485   2   -1.45449238 -13.09043138  15.99941612 
      486   1   -0.00000000 -11.63593900  17.45390850 
      487   2   -1.45449238 -10.18144663  18.90840087 
      488   1   -0.00000000 -8.72695425  20.36289325 
      489   2   -1.45449238 -7.27246188  21.81738562 
      490   1   -0.00000000 -5.81796950  23.27187800 
      491   2   -1.45449238 -4.36347713  24.72637037 
      492   1   -0.00000000 -2.90898475  26.18086275 
      493   2   -1.45449238 -1.45449238  27.63535512 
      494   2    1.45449237 -27.63535513  4.36347712 
      495   1    2.90898475 -26.18086275  5.81796950 
      496   2    1.45449237 -24.72637038  7.27246187 
      497   1    2.90898475 -23.27187800  8.72695425 
      498   2    1.45449237 -21.81738563  10.18144662 
      499   1    2.90898475 -20.36289325  11.63593900 
      500   2    1.45449237 -18.90840088  13.09043137 
      501   1    2.90898475 -17.45390850  14.54492375 
      502   2    1.45449237 -15.99941613  15.99941612 
      503   1    2.90898475 -14.54492375  17.45390850 
      504   2    1.45449237 -13.09043138  18.90840087 
      505   1    2.90898475 -11.63593900  20.36289325 
      506   2    1.45449237 -10.18144663  21.81738562 
      507   1    2.90898475 -8.72695425  23.27187800 
      508   2    1.45449237 -7.27246188  24.72637037 
      509   1    2.90898475 -5.81796950  26.18086275 
      510   2    1.45449237 -4.36347713  27.63535512 
      511   1    5.81796950 -26.18086275  8.72695425 
      512   2    4.36347712 -24.72637038  10.18144662 
      513   1    5.81796950 -23.27187800  11.63593900 
      514   2    4.36347712 -21.81738563  13.09043137 
      515   1    5.81796950 -20.36289325  14.54492375 
      516   2    4.36347712 -18.90840088  15.99941612 
      517   1    5.81796950 -17.45390850  17.45390850 
      518   2    4.36347712 -15.99941613  18.90840087 
      519   1    5.81796950 -14.54492375  20.36289325 
      520   2    4.36347712 -13.09043138  21.81738562 
      521   1    5.81796950 -11.63593900  23.27187800 
      522   2    4.36347712 -10.18144663  24.72637037 
      523   1    5.81796950 -8.72695425  26.18086275 
      524   2    7.27246187 -21.81738563  15.99941612 
      525   1    8.72695425 -20.36289325  17.45390850 
      526   2    7.27246187 -18.90840088  18.90840087 
      527   1    8.72695425 -17.45390850  20.36289325 
      528   2    7.27246187 -15.99941613  21.81738562 
      529   1   -26.18086275 -5.81796950 -8.72695425 
      530   1   -26.18086275 -2.90898475 -5.81796950 
      531   2   -27.63535513 -1.45449238 -4.36347713 
      532   1   -26.18086275 -0.00000000 -2.90898475 
      533   2   -27.63535513  1.45449237 -1.45449238 
      534   1   -26.18086275  2.90898475 -0.00000000 
      535   2   -27.63535513  4.36347712  1.45449237 
      536   1   -26.18086275  5.81796950  2.90898475 
      537   1   -26.18086275  8.72695425  5.81796950 
      538   1   -23.27187800 -11.63593900 -11.63593900 
      539   2   -24.72637038 -10.18144663 -10.18144663 
      540   1   -23.27187800 -8.72695425 -8.72695425 
      541   2   -24.72637038 -7.27246188 -7.27246188 
      542   1   -23.27187800 -5.81796950 -5.81796950 
      543   2   -24.72637038 -4.36347713 -4.36347713 