LAMMPS configuration data file

  2203 atoms

  4 atom types

  -49.660098  49.660098  xlo xhi
  -49.660098  49.660098  ylo yhi
  -26.142990  26.142990  zlo zhi

 Masses

  1   78.960
  2   112.411
  3   1.000
  4   1.000

 Atoms

        1   1   -28.12239797 -28.12239797  1.53327989 
        2   2   -29.59999786 -26.61059808  3.05540978 
        3   1   -28.09919797 -25.12309818  4.58312967 
        4   2   -29.55589787 -23.61389829  6.12003956 
        5   2   -26.61059808 -29.59999786  3.05540978 
        6   1   -25.12309818 -28.09919797  4.58312967 
        7   2   -26.58239808 -26.58239808  6.11491956 
        8   2   -23.61389829 -29.55589787  6.12003956 
        9   1   -28.09799797 -28.09799797 -4.56641967 
       10   2   -29.61549786 -26.63139808 -3.03963978 
       11   1   -28.13039797 -25.14299818 -1.51532989 
       12   2   -29.63489786 -23.65699829  0.00458397 
       13   1   -28.13629797 -22.17209840  1.52760989 
       14   2   -29.61849786 -20.67549851  3.05142978 
       15   1   -28.11149797 -19.19969861  4.58136967 
       16   2   -29.57009786 -17.70079872  6.12079956 
       17   2   -26.63139808 -29.61549786 -3.03963978 
       18   1   -25.14299818 -28.13039797 -1.51532989 
       19   2   -26.63659808 -26.63659808  0.00437245 
       20   1   -25.14639819 -25.14639819  1.52688989 
       21   2   -26.62519808 -23.64509829  3.04840978 
       22   1   -25.13169819 -22.16079840  4.57800967 
       23   2   -26.59579808 -20.66089851  6.11258956 
       24   2   -23.65699829 -29.63489786  0.00458397 
       25   1   -22.17209840 -28.13629797  1.52760989 
       26   2   -23.64509829 -26.62519808  3.04840978 
       27   1   -22.16079840 -25.13169819  4.57800967 
       28   2   -23.62509829 -23.62509829  6.10950956 
       29   2   -20.67549851 -29.61849786  3.05142978 
       30   1   -19.19969861 -28.11149797  4.58136967 
       31   2   -20.66089851 -26.59579808  6.11258956 
       32   2   -17.70079872 -29.57009786  6.12079956 
       33   2   -29.57409787 -23.64499829 -6.10850956 
       34   1   -28.10689797 -22.15929840 -4.57178967 
       35   2   -29.62569786 -20.69359851 -3.04641978 
       36   1   -28.14229797 -19.20559862 -1.52263989 
       37   2   -29.64869786 -17.72669872 -0.00021577 
       38   1   -28.14819797 -16.24779883  1.52548989 
       39   2   -29.63109786 -14.75789894  3.05203978 
       40   1   -28.11959797 -13.28889904  4.58307967 
       41   2   -29.57789787 -11.79459915  6.12456956 
       42   2   -26.60549808 -26.60549808 -6.10441956 
       43   1   -25.12839819 -25.12839819 -4.57032967 
       44   2   -26.63509808 -23.65889829 -3.04460978 
       45   1   -25.15089819 -22.17329840 -1.52266989 
       46   2   -26.64799807 -20.69029851 -0.00007095 
       47   1   -25.15649818 -19.20789862  1.52536989 
       48   2   -26.63859808 -17.71789872  3.04941978 
       49   1   -25.14029818 -16.24389883  4.58140967 
       50   2   -26.60599808 -14.75109894  6.11709956 
       51   2   -23.64499829 -29.57409787 -6.10850956 
       52   1   -22.15929840 -28.10689797 -4.57178967 
       53   2   -23.65889829 -26.63509808 -3.04460978 
       54   1   -22.17329840 -25.15089819 -1.52266989 
       55   2   -23.66259829 -23.66259829 -0.00071231 
       56   1   -22.17699840 -22.17699840  1.52544989 
       57   2   -23.65559829 -20.68209851  3.04794978 
       58   1   -22.16709840 -19.20219861  4.58004967 
       59   2   -23.63469829 -17.70859872  6.11482956 
       60   2   -20.69359851 -29.62569786 -3.04641978 
       61   1   -19.20559862 -28.14229797 -1.52263989 
       62   2   -20.69029851 -26.64799807 -0.00007095 
       63   1   -19.20789862 -25.15649818  1.52536989 
       64   2   -20.68209851 -23.65559829  3.04794978 
       65   1   -19.20219861 -22.16709840  4.58004967 
       66   2   -20.66909851 -20.66909851  6.11344956 
       67   2   -17.72669872 -29.64869786 -0.00021577 
       68   1   -16.24779883 -28.14819797  1.52548989 
       69   2   -17.71789872 -26.63859808  3.04941978 
       70   1   -16.24389883 -25.14029818  4.58140967 
       71   2   -17.70859872 -23.63469829  6.11482956 
       72   2   -14.75789894 -29.63109786  3.05203978 
       73   1   -13.28889904 -28.11959797  4.58307967 
       74   2   -14.75109894 -26.60599808  6.11709956 
       75   2   -11.79459915 -29.57789787  6.12456956 
       76   2   -29.57839786 -17.72839872 -6.11924956 
       77   1   -28.11449797 -16.23939883 -4.58184967 
       78   2   -29.63329786 -14.77489893 -3.05518978 
       79   1   -28.15099797 -13.28929904 -1.52779989 
       80   2   -29.65629786 -11.81319915 -0.00245236 
       81   1   -28.15429797 -10.33799925  1.52578989 
       82   2   -29.63519786 -8.84970936  3.05487978 
       83   1   -28.12099797 -7.38425947  4.58692967 
       84   2   -29.57859787 -5.89167957  6.12988956 
       85   2   -26.60739808 -20.68169851 -6.11047956 
       86   1   -25.13469819 -19.19819861 -4.57908967 
       87   2   -26.64199808 -17.73069872 -3.05232978 
       88   1   -25.15989818 -16.24709883 -1.52810989 
       89   2   -26.65769808 -14.77019894 -0.00278098 
       90   1   -25.16479818 -13.29269904  1.52553989 
       91   2   -26.64599808 -11.80619915  3.05217978 
       92   1   -25.14399819 -10.33689925  4.58466967 
       93   2   -26.60959808 -8.84790936  6.12197956 
       94   2   -23.64059830 -23.64059830 -6.10833956 
       95   1   -22.16169840 -22.16169840 -4.57788967 
       96   2   -23.66129829 -20.69089851 -3.05147978 
       97   1   -22.17899840 -19.20829862 -1.52861989 
       98   2   -23.67049829 -17.72839872 -0.00300570 
       99   1   -22.18379840 -16.24909883  1.52585989 
      100   2   -23.66489829 -14.76359893  3.05216978 
      101   1   -22.17209840 -13.29049904  4.58480967 
      102   2   -23.64109829 -11.80259915  6.11995956 
      103   2   -20.68169851 -26.60739808 -6.11047956 
      104   1   -19.19819861 -25.13469819 -4.57908967 
      105   2   -20.69089851 -23.66129829 -3.05147978 
      106   1   -19.20829862 -22.17899840 -1.52861989 
      107   2   -20.69449851 -20.69449851 -0.00325464 
      108   1   -19.21189861 -19.21189861  1.52535989 
      109   2   -20.69049851 -17.72429872  3.05079978 
      110   1   -19.20659861 -16.24649883  4.58517967 
      111   2   -20.67599851 -14.75769893  6.12058956 
      112   2   -17.72839872 -29.57839786 -6.11924956 
      113   1   -16.23939883 -28.11449797 -4.58184967 
      114   2   -17.73069872 -26.64199808 -3.05232978 
      115   1   -16.24709883 -25.15989818 -1.52810989 
      116   2   -17.72839872 -23.67049829 -0.00300570 
      117   1   -16.24909883 -22.18379840  1.52585989 
      118   2   -17.72429872 -20.69049851  3.05079978 
      119   1   -16.24649883 -19.20659861  4.58517967 
      120   2   -17.71459872 -17.71459872  6.12139956 
      121   2   -14.77489893 -29.63329786 -3.05518978 
      122   1   -13.28929904 -28.15099797 -1.52779989 
      123   2   -14.77019894 -26.65769808 -0.00278098 
      124   1   -13.29269904 -25.16479818  1.52553989 
      125   2   -14.76359893 -23.66489829  3.05216978 
      126   1   -13.29049904 -22.17209840  4.58480967 
      127   2   -14.75769893 -20.67599851  6.12058956 
      128   2   -11.81319915 -29.65629786 -0.00245236 
      129   1   -10.33799925 -28.15429797  1.52578989 
      130   2   -11.80619915 -26.64599808  3.05217978 
      131   1   -10.33689925 -25.14399819  4.58466967 
      132   2   -11.80259915 -23.64109829  6.11995956 
      133   2   -8.84970936 -29.63519786  3.05487978 
      134   1   -7.38425947 -28.12099797  4.58692967 
      135   2   -8.84790936 -26.60959808  6.12197956 
      136   2   -5.89167957 -29.57859787  6.12988956 
      137   2   -29.58039786 -11.81839915 -6.12748956 
      138   1   -28.11969797 -10.32919925 -4.58719967 
      139   2   -29.63799786 -8.86531936 -3.05837978 
      140   1   -28.15619797 -7.38057947 -1.52833989 
      141   2   -29.65949786 -5.90421958 -0.00122030 
      142   1   -28.15539797 -4.43016968  1.52713989 
      143   2   -29.63699786 -2.94490979  3.05761978 
      144   1   -28.12179797 -1.48062989  4.58923967 
      145   2   -29.58049787  0.01058730  6.13204956 
      146   2   -26.60979808 -14.76939894 -6.12010956 
      147   1   -25.14009819 -13.28489904 -4.58618967 
      148   2   -26.64719807 -11.81819915 -3.05733978 
      149   1   -25.16649818 -10.33689925 -1.52900989 
      150   2   -26.66289807 -8.86049936 -0.00206845 
      151   1   -25.16799818 -7.38466947  1.52665989 
      152   2   -26.64859808 -5.90016958  3.05458978 
      153   1   -25.14459818 -4.43307968  4.58727967 
      154   2   -26.61079808 -2.94507979  6.12479956 
      155   2   -23.64109829 -17.72239872 -6.11827956 
      156   1   -22.16579840 -16.24099883 -4.58665967 
      157   2   -23.66579829 -14.77259893 -3.05807978 
      158   1   -22.18499840 -13.29169904 -1.53176989 
      159   2   -23.67709829 -11.81639915 -0.00330903 
      160   1   -22.18889840 -10.34049925  1.52706989 
      161   2   -23.66879829 -8.85621936  3.05405978 
      162   1   -22.17379840 -7.38573947  4.58749967 
      163   2   -23.64319829 -5.89961958  6.12338956 
      164   2   -20.67819851 -20.67819851 -6.11763956 
      165   1   -19.20009861 -19.20009861 -4.58750967 
      166   2   -20.69219851 -17.72929872 -3.05824978 
      167   1   -19.21219861 -16.24849883 -1.53346989 
      168   2   -20.69959850 -14.77199893 -0.00420447 
      169   1   -19.21679861 -13.29429904  1.52731989 
      170   2   -20.69569851 -11.81179915  3.05564978 
      171   1   -19.20869862 -10.33789926  4.58962967 
      172   2   -20.67959851 -8.85333936  6.12503956 
      173   2   -17.72239872 -23.64109829 -6.11827956 
      174   1   -16.24099883 -22.16579840 -4.58665967 
      175   2   -17.72929872 -20.69219851 -3.05824978 
      176   1   -16.24849883 -19.21219861 -1.53346989 
      177   2   -17.73149872 -17.73149872 -0.00482125 
      178   1   -16.25199883 -16.25199883  1.52744989 
      179   2   -17.72959872 -14.76859893  3.05674978 
      180   1   -16.24849883 -13.29139904  4.59138967 
      181   2   -17.71899872 -11.80609915  6.12776956 
      182   2   -14.76939894 -26.60979808 -6.12010956 
      183   1   -13.28489904 -25.14009819 -4.58618967 
      184   2   -14.77259893 -23.66579829 -3.05807978 
      185   1   -13.29169904 -22.18499840 -1.53176989 
      186   2   -14.77199893 -20.69959850 -0.00420447 
      187   1   -13.29429904 -19.21679861  1.52731989 
      188   2   -14.76859893 -17.72959872  3.05674978 
      189   1   -13.29139904 -16.24849883  4.59138967 
      190   2   -14.76149893 -14.76149893  6.12800956 
      191   2   -11.81839915 -29.58039786 -6.12748956 
      192   1   -10.32919925 -28.11969797 -4.58719967 
      193   2   -11.81819915 -26.64719807 -3.05733978 
      194   1   -10.33689925 -25.16649818 -1.52900989 
      195   2   -11.81639915 -23.67709829 -0.00330903 
      196   1   -10.34049925 -22.18889840  1.52706989 
      197   2   -11.81179915 -20.69569851  3.05564978 
      198   1   -10.33789926 -19.20869862  4.58962967 
      199   2   -11.80609915 -17.71899872  6.12776956 
      200   2   -8.86531936 -29.63799786 -3.05837978 
      201   1   -7.38057947 -28.15619797 -1.52833989 
      202   2   -8.86049936 -26.66289807 -0.00206845 
      203   1   -7.38466947 -25.16799818  1.52665989 
      204   2   -8.85621936 -23.66879829  3.05405978 
      205   1   -7.38573947 -22.17379840  4.58749967 
      206   2   -8.85333936 -20.67959851  6.12503956 
      207   2   -5.90421958 -29.65949786 -0.00122030 
      208   1   -4.43016968 -28.15539797  1.52713989 
      209   2   -5.90016958 -26.64859808  3.05458978 
      210   1   -4.43307968 -25.14459818  4.58727967 
      211   2   -5.89961958 -23.64319829  6.12338956 
      212   2   -2.94490979 -29.63699786  3.05761978 
      213   1   -1.48062989 -28.12179797  4.58923967 
      214   2   -2.94507979 -26.61079808  6.12479956 
      215   2    0.01058730 -29.58049787  6.13204956 
      216   2   -29.58179787 -5.91369957 -6.13255956 
      217   1   -28.12319797 -4.42406968 -4.58932967 
      218   2   -29.63879786 -2.95897979 -3.05883978 
      219   1   -28.15629797 -1.47411989 -1.52863989 
      220   2   -29.66009786 -0.00000000 -0.00000000 
      221   1   -28.15629797  1.47411989  1.52863989 
      222   2   -29.63879786  2.95897979  3.05883978 
      223   1   -28.12319797  4.42406968  4.58932967 
      224   2   -29.58179787  5.91369957  6.13255956 
      225   2   -26.61199808 -8.86305936 -6.12519956 
      226   1   -25.14539818 -7.37771947 -4.58856967 
      227   2   -26.65119808 -5.91089958 -3.05767978 
      228   1   -25.16999818 -4.42826968 -1.52889989 
      229   2   -26.66479807 -2.95236979 -0.00071445 
      230   1   -25.16859819 -1.47823990  1.52838989 
      231   2   -26.64969808  0.00487200  3.05729978 
      232   1   -25.14649818  1.47287989  4.58918967 
      233   2   -26.61339808  2.95925979  6.12657956 
      234   2   -23.64299829 -11.81389915 -6.12460956 
      235   1   -22.17159840 -10.33129926 -4.59044967 
      236   2   -23.67139829 -8.86410936 -3.05935978 
      237   1   -22.19119840 -7.38336947 -1.53132989 
      238   2   -23.68089829 -5.90708957 -0.00178475 
      239   1   -22.19019840 -4.43204968  1.52844989 
      240   2   -23.67059829 -2.95039979  3.05706978 
      241   1   -22.17549840 -1.48083989  4.59078967 
      242   2   -23.64579829  0.00475412  6.12559956 
      243   2   -20.67839851 -14.76539893 -6.12710956 
      244   1   -19.20389861 -13.28519904 -4.59506967 
      245   2   -20.69639851 -11.81679915 -3.06288978 
      246   1   -19.21809861 -10.33879925 -1.53363989 
      247   2   -20.70499850 -8.86299936 -0.00325629 
      248   1   -19.21949861 -7.38683947  1.52814989 
      249   2   -20.69799851 -5.90577957  3.05741978 
      250   1   -19.20969861 -4.43451968  4.59304967 
      251   2   -20.68169851 -2.95031979  6.12857956 
      252   2   -17.71959872 -17.71959872 -6.12927956 
      253   1   -16.24179883 -16.24179883 -4.59688967 
      254   2   -17.72979872 -14.77039893 -3.06622978 
      255   1   -16.25179883 -13.29309904 -1.53642989 
      256   2   -17.73569872 -11.81809915 -0.00466788 
      257   1   -16.25519883 -10.34169926  1.52800989 
      258   2   -17.73219872 -8.86077936  3.05846978 
      259   1   -16.24889883 -7.38638946  4.59407967 
      260   2   -17.72099872 -5.90405957  6.13160956 
      261   2   -14.76539893 -20.67839851 -6.12710956 
      262   1   -13.28519904 -19.20389861 -4.59506967 
      263   2   -14.77039893 -17.72979872 -3.06622978 
      264   1   -13.29309904 -16.25179883 -1.53642989 
      265   2   -14.77429893 -14.77429893 -0.00539496 
      266   1   -13.29669904 -13.29669904  1.52842989 
      267   2   -14.77189893 -11.81509915  3.06050978 
      268   1   -13.29189904 -10.33759925  4.59452967 
      269   2   -14.76349893 -8.85601936  6.13235956 
      270   2   -11.81389915 -23.64299829 -6.12460956 
      271   1   -10.33129926 -22.17159840 -4.59044967 
      272   2   -11.81679915 -20.69639851 -3.06288978 
      273   1   -10.33879925 -19.21809861 -1.53363989 
      274   2   -11.81809915 -17.73569872 -0.00466788 
      275   1   -10.34169926 -16.25519883  1.52800989 
      276   2   -11.81509915 -14.77189893  3.06050978 
      277   1   -10.33759925 -13.29189904  4.59452967 
      278   2   -11.80859915 -11.80859915  6.13222956 
      279   2   -8.86305936 -26.61199808 -6.12519956 
      280   1   -7.37771947 -25.14539818 -4.58856967 
      281   2   -8.86410936 -23.67139829 -3.05935978 
      282   1   -7.38336947 -22.19119840 -1.53132989 
      283   2   -8.86299936 -20.70499850 -0.00325629 
      284   1   -7.38683947 -19.21949861  1.52814989 
      285   2   -8.86077936 -17.73219872  3.05846978 
      286   1   -7.38638946 -16.24889883  4.59407967 
      287   2   -8.85601936 -14.76349893  6.13235956 
      288   2   -5.91369957 -29.58179787 -6.13255956 
      289   1   -4.42406968 -28.12319797 -4.58932967 
      290   2   -5.91089958 -26.65119808 -3.05767978 
      291   1   -4.42826968 -25.16999818 -1.52889989 
      292   2   -5.90708957 -23.68089829 -0.00178475 
      293   1   -4.43204968 -22.19019840  1.52844989 
      294   2   -5.90577957 -20.69799851  3.05741978 
      295   1   -4.43451968 -19.20969861  4.59304967 
      296   2   -5.90405957 -17.72099872  6.13160956 
      297   2   -2.95897979 -29.63879786 -3.05883978 
      298   1   -1.47411989 -28.15629797 -1.52863989 
      299   2   -2.95236979 -26.66479807 -0.00071445 
      300   1   -1.47823990 -25.16859819  1.52838989 
      301   2   -2.95039979 -23.67059829  3.05706978 
      302   1   -1.48083989 -22.17549840  4.59078967 
      303   2   -2.95031979 -20.68169851  6.12857956 
      304   2   -0.00000000 -29.66009786 -0.00000000 
      305   1    1.47411989 -28.15629797  1.52863989 
      306   2    0.00487200 -26.64969808  3.05729978 
      307   1    1.47287989 -25.14649818  4.58918967 
      308   2    0.00475412 -23.64579829  6.12559956 
      309   2    2.95897979 -29.63879786  3.05883978 
      310   1    4.42406968 -28.12319797  4.58932967 
      311   2    2.95925979 -26.61339808  6.12657956 
      312   2    5.91369957 -29.58179787  6.13255956 
      313   2   -29.58049787 -0.01058730 -6.13204956 
      314   1   -28.12179797  1.48062989 -4.58923967 
      315   2   -29.63699786  2.94490979 -3.05761978 
      316   1   -28.15539797  4.43016968 -1.52713989 
      317   2   -29.65949786  5.90421958  0.00122029 
      318   1   -28.15619797  7.38057947  1.52833989 
      319   2   -29.63799786  8.86531936  3.05837978 
      320   1   -28.11969797  10.32919925  4.58719967 
      321   2   -29.58039786  11.81839915  6.12748956 
      322   2   -26.61339808 -2.95925979 -6.12657956 
      323   1   -25.14649818 -1.47287989 -4.58918967 
      324   2   -26.64969808 -0.00487200 -3.05729978 
      325   1   -25.16859819  1.47823990 -1.52838989 
      326   2   -26.66479807  2.95236979  0.00071444 
      327   1   -25.16999818  4.42826968  1.52889989 
      328   2   -26.65119808  5.91089958  3.05767978 
      329   1   -25.14539818  7.37771947  4.58856967 
      330   2   -26.61199808  8.86305936  6.12519956 
      331   2   -23.64619829 -5.90940957 -6.12707956 
      332   1   -22.17649840 -4.42587968 -4.59129967 
      333   2   -23.67329829 -2.95675978 -3.05869978 
      334   1   -22.19169840 -1.47552989 -1.53056989 
      335   2   -23.68129829 -0.00000000 -0.00000000 
      336   1   -22.19169840  1.47552989  1.53056989 
      337   2   -23.67329829  2.95675978  3.05869978 
      338   1   -22.17649840  4.42587968  4.59129967 
      339   2   -23.64619829  5.90940957  6.12707956 
      340   2   -20.68159851 -8.85923936 -6.13022956 
      341   1   -19.21019862 -7.37870947 -4.59530967 
      342   2   -20.70189850 -5.90940957 -3.06214978 
      343   1   -19.22239861 -4.43005968 -1.53285989 
      344   2   -20.70699851 -2.95402979 -0.00110222 
      345   1   -19.22139861 -1.47906989  1.53152989 
      346   2   -20.70089851  0.00144389  3.06108978 
      347   1   -19.21239861  1.47296989  4.59591967 
      348   2   -20.68439851  2.95534979  6.13098956 
      349   2   -17.72019872 -11.80979915 -6.13508956 
      350   1   -16.24679883 -10.33109925 -4.59962967 
      351   2   -17.73519872 -8.86190936 -3.06594978 
      352   1   -16.25699883 -7.38449947 -1.53539989 
      353   2   -17.73919872 -5.90874958 -0.00291350 
      354   1   -16.25669883 -4.43291968  1.53044989 
      355   2   -17.73479872 -2.95459979  3.06252978 
      356   1   -16.25189882 -1.48177990  4.59907967 
      357   2   -17.72459872  0.00097028  6.13477956 
      358   2   -14.76289894 -14.76289894 -6.13740956 
      359   1   -13.28709904 -13.28709904 -4.60246967 
      360   2   -14.77259893 -11.81539915 -3.07066978 
      361   1   -13.29679904 -10.33999925 -1.53716989 
      362   2   -14.77759893 -8.86395936 -0.00448027 
      363   1   -13.29809904 -7.38710947  1.52926989 
      364   2   -14.77319893 -5.90813957  3.06285978 
      365   1   -13.29269904 -4.43352968  4.59857967 
      366   2   -14.76599894 -2.95345979  6.13698955 
      367   2   -11.80979915 -17.72019872 -6.13508956 
      368   1   -10.33109925 -16.24679883 -4.59962967 
      369   2   -11.81539915 -14.77259893 -3.07066978 
      370   1   -10.33999925 -13.29679904 -1.53716989 
      371   2   -11.81989915 -11.81989915 -0.00523546 
      372   1   -10.34249926 -10.34249926  1.52814989 
      373   2   -11.81599915 -8.86185936  3.06140978 
      374   1   -10.33749926 -7.38484947  4.59617967 
      375   2   -11.80919915 -5.90505958  6.13586956 
      376   2   -8.85923936 -20.68159851 -6.13022956 
      377   1   -7.37870947 -19.21019862 -4.59530967 
      378   2   -8.86190936 -17.73519872 -3.06594978 
      379   1   -7.38449947 -16.25699883 -1.53539989 
      380   2   -8.86395936 -14.77759893 -0.00448027 
      381   1   -7.38710947 -13.29809904  1.52926989 
      382   2   -8.86185936 -11.81599915  3.06140978 
      383   1   -7.38484947 -10.33749926  4.59617967 
      384   2   -8.85621936 -8.85621936  6.13429956 
      385   2   -5.90940957 -23.64619829 -6.12707956 
      386   1   -4.42587968 -22.17649840 -4.59129967 
      387   2   -5.90940957 -20.70189850 -3.06214978 
      388   1   -4.43005968 -19.22239861 -1.53285989 
      389   2   -5.90874958 -17.73919872 -0.00291350 
      390   1   -4.43291968 -16.25669883  1.53044989 
      391   2   -5.90813957 -14.77319893  3.06285978 
      392   1   -4.43352968 -13.29269904  4.59857967 
      393   2   -5.90505958 -11.80919915  6.13586956 
      394   2   -2.95925979 -26.61339808 -6.12657956 
      395   1   -1.47287989 -25.14649818 -4.58918967 
      396   2   -2.95675978 -23.67329829 -3.05869978 
      397   1   -1.47552989 -22.19169840 -1.53056989 
      398   2   -2.95402979 -20.70699851 -0.00110222 
      399   1   -1.47906989 -19.22139861  1.53152989 
      400   2   -2.95459979 -17.73479872  3.06252978 
      401   1   -1.48177990 -16.25189882  4.59907967 
      402   2   -2.95345979 -14.76599894  6.13698955 
      403   2   -0.01058730 -29.58049787 -6.13204956 
      404   1    1.48062989 -28.12179797 -4.58923967 
      405   2   -0.00487200 -26.64969808 -3.05729978 
      406   1    1.47823990 -25.16859819 -1.52838989 
      407   2   -0.00000000 -23.68129829 -0.00000000 
      408   1    1.47552989 -22.19169840  1.53056989 
      409   2    0.00144389 -20.70089851  3.06108978 
      410   1    1.47296989 -19.21239861  4.59591967 
      411   2    0.00097028 -17.72459872  6.13477956 
      412   2    2.94490979 -29.63699786 -3.05761978 
      413   1    4.43016968 -28.15539797 -1.52713989 
      414   2    2.95236979 -26.66479807  0.00071444 
      415   1    4.42826968 -25.16999818  1.52889989 
      416   2    2.95675978 -23.67329829  3.05869978 
      417   1    4.42587968 -22.17649840  4.59129967 
      418   2    2.95534979 -20.68439851  6.13098956 
      419   2    5.90421958 -29.65949786  0.00122029 
      420   1    7.38057947 -28.15619797  1.52833989 
      421   2    5.91089958 -26.65119808  3.05767978 
      422   1    7.37771947 -25.14539818  4.58856967 
      423   2    5.90940957 -23.64619829  6.12707956 
      424   2    8.86531936 -29.63799786  3.05837978 
      425   1    10.32919925 -28.11969797  4.58719967 
      426   2    8.86305936 -26.61199808  6.12519956 
      427   2    11.81839915 -29.58039786  6.12748956 
      428   2   -29.57859787  5.89167957 -6.12988956 
      429   1   -28.12099797  7.38425947 -4.58692967 
      430   2   -29.63519786  8.84970936 -3.05487978 
      431   1   -28.15429797  10.33799925 -1.52578989 
      432   2   -29.65629786  11.81319915  0.00245235 
      433   1   -28.15099797  13.28929904  1.52779989 
      434   2   -29.63329786  14.77489893  3.05518978 
      435   1   -28.11449797  16.23939883  4.58184967 
      436   2   -29.57839786  17.72839872  6.11924956 
      437   2   -26.61079808  2.94507979 -6.12479956 
      438   1   -25.14459818  4.43307968 -4.58727967 
      439   2   -26.64859808  5.90016958 -3.05458978 
      440   1   -25.16799818  7.38466947 -1.52665989 
      441   2   -26.66289807  8.86049936  0.00206845 
      442   1   -25.16649818  10.33689925  1.52900989 
      443   2   -26.64719807  11.81819915  3.05733978 
      444   1   -25.14009819  13.28489904  4.58618967 
      445   2   -26.60979808  14.76939894  6.12010956 
      446   2   -23.64579829 -0.00475412 -6.12559956 
      447   1   -22.17549840  1.48083989 -4.59078967 
      448   2   -23.67059829  2.95039979 -3.05706978 
      449   1   -22.19019840  4.43204968 -1.52844989 
      450   2   -23.68089829  5.90708957  0.00178475 
      451   1   -22.19119840  7.38336947  1.53132989 
      452   2   -23.67139829  8.86410936  3.05935978 
      453   1   -22.17159840  10.33129926  4.59044967 
      454   2   -23.64299829  11.81389915  6.12460956 
      455   2   -20.68439851 -2.95534979 -6.13098956 
      456   1   -19.21239861 -1.47296989 -4.59591967 
      457   2   -20.70089851 -0.00144389 -3.06108978 
      458   1   -19.22139861  1.47906989 -1.53152989 
      459   2   -20.70699851  2.95402979  0.00110222 
      460   1   -19.22239861  4.43005968  1.53285989 
      461   2   -20.70189850  5.90940957  3.06214978 
      462   1   -19.21019862  7.37870947  4.59530967 
      463   2   -20.68159851  8.85923936  6.13022956 
      464   2   -17.72469872 -5.90584957 -6.13581956 
      465   1   -16.25229882 -4.42598968 -4.59949967 
      466   2   -17.73829872 -2.95427978 -3.06524978 
      467   1   -16.25939883 -1.47559989 -1.53448989 
      468   2   -17.74089872 -0.00000000 -0.00000000 
      469   1   -16.25939883  1.47559989  1.53448989 
      470   2   -17.73829872  2.95427978  3.06524978 
      471   1   -16.25229882  4.42598968  4.59949967 
      472   2   -17.72469872  5.90584957  6.13581956 
      473   2   -14.76529893 -8.85553936 -6.13879956 
      474   1   -13.29209904 -7.37903947 -4.60168967 
      475   2   -14.77739893 -5.90704957 -3.06879978 
      476   1   -13.30119904 -4.42897968 -1.53593989 
      477   2   -14.78079893 -2.95359979 -0.00194274 
      478   1   -13.30109904 -1.47880989  1.53345989 
      479   2   -14.77749894 -0.00112084  3.06795978 
      480   1   -13.29499904  1.47256989  4.60261967 
      481   2   -14.76869894  2.95181979  6.13892956 
      482   2   -11.80849915 -11.80849915 -6.14065956 
      483   1   -10.33409925 -10.33409925 -4.60241967 
      484   2   -11.81859915 -8.86194936 -3.07048978 
      485   1   -10.34369925 -7.38542947 -1.53658989 
      486   2   -11.82279915 -5.90826958 -0.00390051 
      487   1   -10.34419925 -4.43174968  1.53027989 
      488   2   -11.81879914 -2.95450979  3.06608978 
      489   1   -10.33909925 -1.47987990  4.60136967 
      490   2   -11.81229914 -0.00157047  6.13965956 
      491   2   -8.85553936 -14.76529893 -6.13879956 
      492   1   -7.37903947 -13.29209904 -4.60168967 
      493   2   -8.86194936 -11.81859915 -3.07048978 
      494   1   -7.38542947 -10.34369925 -1.53658989 
      495   2   -8.86534936 -8.86534936 -0.00486255 
      496   1   -7.38726946 -7.38726946  1.52907989 
      497   2   -8.86292936 -5.90767957  3.06242978 
      498   1   -7.38447947 -4.43178968  4.59832967 
      499   2   -8.85713936 -2.95324979  6.13881956 
      500   2   -5.90584957 -17.72469872 -6.13581956 
      501   1   -4.42598968 -16.25229882 -4.59949967 
      502   2   -5.90704957 -14.77739893 -3.06879978 
      503   1   -4.42897968 -13.30119904 -1.53593989 
      504   2   -5.90826958 -11.82279915 -0.00390051 
      505   1   -4.43174968 -10.34419925  1.53027989 
      506   2   -5.90767957 -8.86292936  3.06242978 
      507   1   -4.43178968 -7.38447947  4.59832967 
      508   2   -5.90434957 -5.90434957  6.13752956 
      509   2   -2.95534979 -20.68439851 -6.13098956 
      510   1   -1.47296989 -19.21239861 -4.59591967 
      511   2   -2.95427978 -17.73829872 -3.06524978 
      512   1   -1.47559989 -16.25939883 -1.53448989 
      513   2   -2.95359979 -14.78079893 -0.00194274 
      514   1   -1.47880989 -13.30109904  1.53345989 
      515   2   -2.95450979 -11.81879914  3.06608978 
      516   1   -1.47987990 -10.33909925  4.60136967 
      517   2   -2.95324979 -8.85713936  6.13881956 
      518   2   -0.00475412 -23.64579829 -6.12559956 
      519   1    1.48083989 -22.17549840 -4.59078967 
      520   2   -0.00144389 -20.70089851 -3.06108978 
      521   1    1.47906989 -19.22139861 -1.53152989 
      522   2   -0.00000000 -17.74089872 -0.00000000 
      523   1    1.47559989 -16.25939883  1.53448989 
      524   2   -0.00112084 -14.77749894  3.06795978 
      525   1    1.47256989 -13.29499904  4.60261967 
      526   2   -0.00157047 -11.81229914  6.13965956 
      527   2    2.94507979 -26.61079808 -6.12479956 
      528   1    4.43307968 -25.14459818 -4.58727967 
      529   2    2.95039979 -23.67059829 -3.05706978 
      530   1    4.43204968 -22.19019840 -1.52844989 
      531   2    2.95402979 -20.70699851  0.00110222 
      532   1    4.43005968 -19.22239861  1.53285989 
      533   2    2.95427978 -17.73829872  3.06524978 
      534   1    4.42598968 -16.25229882  4.59949967 
      535   2    2.95181979 -14.76869894  6.13892956 
      536   2    5.89167957 -29.57859787 -6.12988956 
      537   1    7.38425947 -28.12099797 -4.58692967 
      538   2    5.90016958 -26.64859808 -3.05458978 
      539   1    7.38466947 -25.16799818 -1.52665989 
      540   2    5.90708957 -23.68089829  0.00178475 
      541   1    7.38336947 -22.19119840  1.53132989 
      542   2    5.90940957 -20.70189850  3.06214978 
      543   1    7.37870947 -19.21019862  4.59530967 
      544   2    5.90584957 -17.72469872  6.13581956 
      545   2    8.84970936 -29.63519786 -3.05487978 
      546   1    10.33799925 -28.15429797 -1.52578989 
      547   2    8.86049936 -26.66289807  0.00206845 