LAMMPS configuration data file

  6053 atoms

  5 atom types

  -47.854498  47.854498  xlo xhi
  -47.854498  47.854498  ylo yhi
  -47.854498  47.854498  zlo zhi

 Masses

  1   32.065
  2   112.411
  3   78.960
  4   1.000
  5   1.000

 Atoms

        1   1   -26.38469809 -14.67079894  5.86876958 
        2   1   -26.38439809 -11.73879915  8.80397937 
        3   1   -26.38439809 -8.80397937  11.73879915 
        4   1   -26.38469809 -5.86876958  14.67079894 
        5   1   -23.46419831 -20.53579852  2.93664979 
        6   2   -24.92289820 -19.06579862  4.39803968 
        7   1   -23.46909831 -17.61139873  5.87217958 
        8   2   -24.92299820 -16.13609883  7.33217947 
        9   1   -23.47069831 -14.68169894  8.80990936 
       10   2   -24.92249820 -13.20359905  10.26819926 
       11   1   -23.47149831 -11.74779915  11.74779915 
       12   2   -24.92249820 -10.26819926  13.20359905 
       13   1   -23.47069831 -8.80990936  14.68169894 
       14   2   -24.92299820 -7.33217947  16.13609883 
       15   1   -23.46909831 -5.87217958  17.61139873 
       16   2   -24.92289820 -4.39803968  19.06579862 
       17   1   -23.46419831 -2.93664979  20.53579852 
       18   1   -20.53579852 -23.46419831  2.93664979 
       19   2   -21.99889841 -21.99889841  4.39889968 
       20   1   -20.54519852 -20.54519852  5.87339958 
       21   2   -22.00359841 -19.07439862  7.33472947 
       22   1   -20.55159852 -17.62159873  8.81368936 
       23   2   -22.00519841 -16.14489883  10.27329926 
       24   1   -20.55389852 -14.69069894  11.75449915 
       25   2   -22.00619841 -13.21129904  13.21129904 
       26   1   -20.55389852 -11.75449915  14.69069894 
       27   2   -22.00519841 -10.27329926  16.14489883 
       28   1   -20.55159852 -8.81368936  17.62159873 
       29   2   -22.00359841 -7.33472947  19.07439862 
       30   1   -20.54519852 -5.87339958  20.54519852 
       31   2   -21.99889841 -4.39889968  21.99889841 
       32   1   -20.53579852 -2.93664979  23.46419831 
       33   2   -19.06579862 -24.92289820  4.39803968 
       34   1   -17.61139873 -23.46909831  5.87217958 
       35   2   -19.07439862 -22.00359841  7.33472947 
       36   1   -17.62159873 -20.55159852  8.81368936 
       37   2   -19.08049863 -19.08049863  10.27539926 
       38   1   -17.62849873 -17.62849873  11.75769915 
       39   2   -19.08359862 -16.15119884  13.21599905 
       40   1   -17.62959873 -14.69599894  14.69599894 
       41   2   -19.08359862 -13.21599905  16.15119884 
       42   1   -17.62849873 -11.75769915  17.62849873 
       43   2   -19.08049863 -10.27539926  19.08049863 
       44   1   -17.62159873 -8.81368936  20.55159852 
       45   2   -19.07439862 -7.33472947  22.00359841 
       46   1   -17.61139873 -5.87217958  23.46909831 
       47   2   -19.06579862 -4.39803968  24.92289820 
       48   1   -14.67079894 -26.38469809  5.86876958 
       49   2   -16.13609883 -24.92299820  7.33217947 
       50   1   -14.68169894 -23.47069831  8.80990936 
       51   2   -16.14489883 -22.00519841  10.27329926 
       52   1   -14.69069894 -20.55389852  11.75449915 
       53   2   -16.15119884 -19.08359862  13.21599905 
       54   1   -14.69599894 -17.62959873  14.69599894 
       55   2   -16.15319883 -16.15319883  16.15319883 
       56   1   -14.69599894 -14.69599894  17.62959873 
       57   2   -16.15119884 -13.21599905  19.08359862 
       58   1   -14.69069894 -11.75449915  20.55389852 
       59   2   -16.14489883 -10.27329926  22.00519841 
       60   1   -14.68169894 -8.80990936  23.47069831 
       61   2   -16.13609883 -7.33217947  24.92299820 
       62   1   -14.67079894 -5.86876958  26.38469809 
       63   1   -11.73879915 -26.38439809  8.80397937 
       64   2   -13.20359905 -24.92249820  10.26819926 
       65   1   -11.74779915 -23.47149831  11.74779915 
       66   2   -13.21129904 -22.00619841  13.21129904 
       67   1   -11.75449915 -20.55389852  14.69069894 
       68   2   -13.21599905 -19.08359862  16.15119884 
       69   1   -11.75769915 -17.62849873  17.62849873 
       70   2   -13.21599905 -16.15119884  19.08359862 
       71   1   -11.75449915 -14.69069894  20.55389852 
       72   2   -13.21129904 -13.21129904  22.00619841 
       73   1   -11.74779915 -11.74779915  23.47149831 
       74   2   -13.20359905 -10.26819926  24.92249820 
       75   1   -11.73879915 -8.80397937  26.38439809 
       76   1   -8.80397937 -26.38439809  11.73879915 
       77   2   -10.26819926 -24.92249820  13.20359905 
       78   1   -8.80990936 -23.47069831  14.68169894 
       79   2   -10.27329926 -22.00519841  16.14489883 
       80   1   -8.81368936 -20.55159852  17.62159873 
       81   2   -10.27539926 -19.08049863  19.08049863 
       82   1   -8.81368936 -17.62159873  20.55159852 
       83   2   -10.27329926 -16.14489883  22.00519841 
       84   1   -8.80990936 -14.68169894  23.47069831 
       85   2   -10.26819926 -13.20359905  24.92249820 
       86   1   -8.80397937 -11.73879915  26.38439809 
       87   1   -5.86876958 -26.38469809  14.67079894 
       88   2   -7.33217947 -24.92299820  16.13609883 
       89   1   -5.87217958 -23.46909831  17.61139873 
       90   2   -7.33472947 -22.00359841  19.07439862 
       91   1   -5.87339958 -20.54519852  20.54519852 
       92   2   -7.33472947 -19.07439862  22.00359841 
       93   1   -5.87217958 -17.61139873  23.46909831 
       94   2   -7.33217947 -16.13609883  24.92299820 
       95   1   -5.86876958 -14.67079894  26.38469809 
       96   2   -4.39803968 -24.92289820  19.06579862 
       97   1   -2.93664979 -23.46419831  20.53579852 
       98   2   -4.39889968 -21.99889841  21.99889841 
       99   1   -2.93664979 -20.53579852  23.46419831 
      100   2   -4.39803968 -19.06579862  24.92289820 
      101   1   -26.39369809 -14.67779894 -0.00064299 
      102   1   -26.39489810 -11.74619915  2.93465979 
      103   2   -27.84459799 -10.26979926  4.39721968 
      104   1   -26.39489810 -8.81104936  5.87300958 
      105   2   -27.84369799 -7.33400947  7.33400947 
      106   1   -26.39489810 -5.87300958  8.81104936 
      107   2   -27.84459799 -4.39721968  10.26979926 
      108   1   -26.39489810 -2.93465979  11.74619915 
      109   1   -26.39369809  0.00064299  14.67779894 
      110   1   -23.47109831 -20.54169852 -2.93609979 
      111   2   -24.93079820 -19.07309862 -1.47375989 
      112   1   -23.47899831 -17.61979873 -0.00074714 
      113   2   -24.93489820 -16.14709883  1.46175989 
      114   1   -23.48489831 -14.69279894  2.93711979 
      115   2   -24.93639820 -13.21489905  4.39855968 
      116   1   -23.48819830 -11.75989915  5.87834957 
      117   2   -24.93649820 -10.27879926  7.33862947 
      118   1   -23.48999830 -8.82148936  8.82148936 
      119   2   -24.93649820 -7.33862947  10.27879926 
      120   1   -23.48819830 -5.87834957  11.75989915 
      121   2   -24.93639820 -4.39855968  13.21489905 
      122   1   -23.48489831 -2.93711979  14.69279894 
      123   2   -24.93489820 -1.46175989  16.14709883 
      124   1   -23.47899831  0.00074713  17.61979873 
      125   2   -24.93079820  1.47375989  19.07309862 
      126   1   -23.47109831  2.93609979  20.54169852 
      127   1   -20.54169852 -23.47109831 -2.93609979 
      128   2   -22.00559841 -22.00559841 -1.47487990 
      129   1   -20.55399852 -20.55399852 -0.00097961 
      130   2   -22.01469841 -19.08519862  1.46138989 
      131   1   -20.56469852 -17.63359873  2.93859979 
      132   2   -22.02079841 -16.15859883  4.40006968 
      133   1   -20.57299851 -14.70679894  5.88214957 
      134   2   -22.02339841 -13.22539905  7.34261947 
      135   1   -20.57709851 -11.77149915  8.82913936 
      136   2   -22.02489841 -10.28629926  10.28629926 
      137   1   -20.57709851 -8.82913936  11.77149915 
      138   2   -22.02339841 -7.34261947  13.22539905 
      139   1   -20.57299851 -5.88214957  14.70679894 
      140   2   -22.02079841 -4.40006968  16.15859883 
      141   1   -20.56469852 -2.93859979  17.63359873 
      142   2   -22.01469841 -1.46138989  19.08519862 
      143   1   -20.55399852  0.00097961  20.55399852 
      144   2   -22.00559841  1.47487990  22.00559841 
      145   1   -20.54169852  2.93609979  23.47109831 
      146   2   -19.07309862 -24.93079820 -1.47375989 
      147   1   -17.61979873 -23.47899831 -0.00074714 
      148   2   -19.08519862 -22.01469841  1.46138989 
      149   1   -17.63359873 -20.56469852  2.93859979 
      150   2   -19.09519862 -19.09519862  4.40048968 
      151   1   -17.64649873 -17.64649873  5.88364957 
      152   2   -19.10359862 -16.16989883  7.34457947 
      153   1   -17.65799873 -14.72119894  8.83422936 
      154   2   -19.10609862 -13.23389904  10.29159925 
      155   1   -17.65759873 -11.77909915  11.77909915 
      156   2   -19.10609862 -10.29159925  13.23389904 
      157   1   -17.65799873 -8.83422936  14.72119894 
      158   2   -19.10359862 -7.34457947  16.16989883 
      159   1   -17.64649873 -5.88364957  17.64649873 
      160   2   -19.09519862 -4.40048968  19.09519862 
      161   1   -17.63359873 -2.93859979  20.56469852 
      162   2   -19.08519862 -1.46138989  22.01469841 
      163   1   -17.61979873  0.00074713  23.47899831 
      164   2   -19.07309862  1.47375989  24.93079820 
      165   1   -14.67779894 -26.39369809 -0.00064299 
      166   2   -16.14709883 -24.93489820  1.46175989 
      167   1   -14.69279894 -23.48489831  2.93711979 
      168   2   -16.15859883 -22.02079841  4.40006968 
      169   1   -14.70679894 -20.57299851  5.88214957 
      170   2   -16.16989883 -19.10359862  7.34457947 
      171   1   -14.72119894 -17.65799873  8.83422936 
      172   2   -16.17779883 -16.17779883  10.29329926 
      173   1   -14.72779893 -14.72779893  11.78279915 
      174   2   -16.17819883 -13.23809904  13.23809904 
      175   1   -14.72779893 -11.78279915  14.72779893 
      176   2   -16.17779883 -10.29329926  16.17779883 
      177   1   -14.72119894 -8.83422936  17.65799873 
      178   2   -16.16989883 -7.34457947  19.10359862 
      179   1   -14.70679894 -5.88214957  20.57299851 
      180   2   -16.15859883 -4.40006968  22.02079841 
      181   1   -14.69279894 -2.93711979  23.48489831 
      182   2   -16.14709883 -1.46175989  24.93489820 
      183   1   -14.67779894  0.00064299  26.39369809 
      184   1   -11.74619915 -26.39489810  2.93465979 
      185   2   -13.21489905 -24.93639820  4.39855968 
      186   1   -11.75989915 -23.48819830  5.87834957 
      187   2   -13.22539905 -22.02339841  7.34261947 
      188   1   -11.77149915 -20.57709851  8.82913936 
      189   2   -13.23389904 -19.10609862  10.29159925 
      190   1   -11.77909915 -17.65759873  11.77909915 
      191   2   -13.23809904 -16.17819883  13.23809904 
      192   1   -11.78279915 -14.72779893  14.72779893 
      193   2   -13.23809904 -13.23809904  16.17819883 
      194   1   -11.77909915 -11.77909915  17.65759873 
      195   2   -13.23389904 -10.29159925  19.10609862 
      196   1   -11.77149915 -8.82913936  20.57709851 
      197   2   -13.22539905 -7.34261947  22.02339841 
      198   1   -11.75989915 -5.87834957  23.48819830 
      199   2   -13.21489905 -4.39855968  24.93639820 
      200   1   -11.74619915 -2.93465979  26.39489810 
      201   2   -10.26979926 -27.84459799  4.39721968 
      202   1   -8.81104936 -26.39489810  5.87300958 
      203   2   -10.27879926 -24.93649820  7.33862947 
      204   1   -8.82148936 -23.48999830  8.82148936 
      205   2   -10.28629926 -22.02489841  10.28629926 
      206   1   -8.82913936 -20.57709851  11.77149915 
      207   2   -10.29159925 -19.10609862  13.23389904 
      208   1   -8.83422936 -17.65799873  14.72119894 
      209   2   -10.29329926 -16.17779883  16.17779883 
      210   1   -8.83422936 -14.72119894  17.65799873 
      211   2   -10.29159925 -13.23389904  19.10609862 
      212   1   -8.82913936 -11.77149915  20.57709851 
      213   2   -10.28629926 -10.28629926  22.02489841 
      214   1   -8.82148936 -8.82148936  23.48999830 
      215   2   -10.27879926 -7.33862947  24.93649820 
      216   1   -8.81104936 -5.87300958  26.39489810 
      217   2   -10.26979926 -4.39721968  27.84459799 
      218   2   -7.33400947 -27.84369799  7.33400947 
      219   1   -5.87300958 -26.39489810  8.81104936 
      220   2   -7.33862947 -24.93649820  10.27879926 
      221   1   -5.87834957 -23.48819830  11.75989915 
      222   2   -7.34261947 -22.02339841  13.22539905 
      223   1   -5.88214957 -20.57299851  14.70679894 
      224   2   -7.34457947 -19.10359862  16.16989883 
      225   1   -5.88364957 -17.64649873  17.64649873 
      226   2   -7.34457947 -16.16989883  19.10359862 
      227   1   -5.88214957 -14.70679894  20.57299851 
      228   2   -7.34261947 -13.22539905  22.02339841 
      229   1   -5.87834957 -11.75989915  23.48819830 
      230   2   -7.33862947 -10.27879926  24.93649820 
      231   1   -5.87300958 -8.81104936  26.39489810 
      232   2   -7.33400947 -7.33400947  27.84369799 
      233   2   -4.39721968 -27.84459799  10.26979926 
      234   1   -2.93465979 -26.39489810  11.74619915 
      235   2   -4.39855968 -24.93639820  13.21489905 
      236   1   -2.93711979 -23.48489831  14.69279894 
      237   2   -4.40006968 -22.02079841  16.15859883 
      238   1   -2.93859979 -20.56469852  17.63359873 
      239   2   -4.40048968 -19.09519862  19.09519862 
      240   1   -2.93859979 -17.63359873  20.56469852 
      241   2   -4.40006968 -16.15859883  22.02079841 
      242   1   -2.93711979 -14.69279894  23.48489831 
      243   2   -4.39855968 -13.21489905  24.93639820 
      244   1   -2.93465979 -11.74619915  26.39489810 
      245   2   -4.39721968 -10.26979926  27.84459799 
      246   1    0.00064299 -26.39369809  14.67779894 
      247   2   -1.46175989 -24.93489820  16.14709883 
      248   1    0.00074713 -23.47899831  17.61979873 
      249   2   -1.46138989 -22.01469841  19.08519862 
      250   1    0.00097961 -20.55399852  20.55399852 
      251   2   -1.46138989 -19.08519862  22.01469841 
      252   1    0.00074713 -17.61979873  23.47899831 
      253   2   -1.46175989 -16.14709883  24.93489820 
      254   1    0.00064299 -14.67779894  26.39369809 
      255   2    1.47375989 -24.93079820  19.07309862 
      256   1    2.93609979 -23.47109831  20.54169852 
      257   2    1.47487990 -22.00559841  22.00559841 
      258   1    2.93609979 -20.54169852  23.47109831 
      259   2    1.47375989 -19.07309862  24.93079820 
      260   1   -26.39869809 -14.67889894 -5.87139958 
      261   1   -26.40089809 -11.75039915 -2.93857979 
      262   2   -27.85199799 -10.27669926 -1.47325989 
      263   1   -26.40259810 -8.81651936 -0.00222772 
      264   2   -27.85029799 -7.34054947  1.46338989 
      265   1   -26.40329809 -5.87817957  2.93765979 
      266   2   -27.84959799 -4.40188968  4.40188968 
      267   1   -26.40329809 -2.93765979  5.87817957 
      268   2   -27.85029799 -1.46338989  7.34054947 
      269   1   -26.40259810  0.00222771  8.81651936 
      270   2   -27.85199799  1.47325989  10.27669926 
      271   1   -26.40089809  2.93857979  11.75039915 
      272   1   -26.39869809  5.87139958  14.67889894 
      273   1   -23.48309830 -17.62149873 -5.87561957 
      274   2   -24.94279820 -16.15299883 -4.41203968 
      275   1   -23.49259830 -14.69859894 -2.94184979 
      276   2   -24.94649820 -13.22439904 -1.47764989 
      277   1   -23.49969830 -11.76799915 -0.00340026 
      278   2   -24.94899820 -10.28919926  1.46115990 
      279   1   -23.50479831 -8.83077936  2.94028979 
      280   2   -24.95029820 -7.34878947  4.40441968 
      281   1   -23.50799830 -5.88760958  5.88760958 
      282   2   -24.95029820 -4.40441968  7.34878947 
      283   1   -23.50479831 -2.94028979  8.83077936 
      284   2   -24.94899820 -1.46115990  10.28919926 
      285   1   -23.49969830  0.00340025  11.76799915 
      286   2   -24.94649820  1.47764989  13.22439904 
      287   1   -23.49259830  2.94184979  14.69859894 
      288   2   -24.94279820  4.41203968  16.15299883 
      289   1   -23.48309830  5.87561957  17.62149873 
      290   1   -20.55709852 -20.55709852 -5.87751957 
      291   2   -22.02259841 -19.09229862 -4.41588968 
      292   1   -20.57259851 -17.64059872 -2.94453979 
      293   2   -22.03359841 -16.17109883 -1.48136989 
      294   1   -20.58849852 -14.72029894 -0.00389192 
      295   2   -22.04199841 -13.24119904  1.45880990 
      296   1   -20.60039852 -11.78759915  2.94177979 
      297   2   -22.04739841 -10.30289926  4.40586968 
      298   1   -20.61039851 -8.84720936  5.89789958 
      299   2   -22.05109841 -7.35694947  7.35694947 
      300   1   -20.61039851 -5.89789958  8.84720936 
      301   2   -22.04739841 -4.40586968  10.30289926 
      302   1   -20.60039852 -2.94177979  11.78759915 
      303   2   -22.04199841 -1.45880990  13.24119904 
      304   1   -20.58849852  0.00389192  14.72029894 
      305   2   -22.03359841  1.48136989  16.17109883 
      306   1   -20.57259851  2.94453979  17.64059872 
      307   2   -22.02259841  4.41588968  19.09229862 
      308   1   -20.55709852  5.87751957  20.55709852 
      309   1   -17.62149873 -23.48309830 -5.87561957 
      310   2   -19.09229862 -22.02259841 -4.41588968 
      311   1   -17.64059872 -20.57259851 -2.94453979 
      312   2   -19.10769862 -19.10769862 -1.48287989 
      313   1   -17.66029873 -17.66029873 -0.00473141 
      314   2   -19.12139862 -16.18709883  1.45749990 
      315   1   -17.67769872 -14.73869894  2.94232979 
      316   2   -19.13279862 -13.25569904  4.40502968 
      317   1   -17.69559872 -11.80559915  5.90112957 
      318   2   -19.13909862 -10.31249926  7.36125947 
      319   1   -17.69799872 -8.85734936  8.85734936 
      320   2   -19.13909862 -7.36125947  10.31249926 
      321   1   -17.69559872 -5.90112957  11.80559915 
      322   2   -19.13279862 -4.40502968  13.25569904 
      323   1   -17.67769872 -2.94232979  14.73869894 
      324   2   -19.12139862 -1.45749990  16.18709883 
      325   1   -17.66029873  0.00473141  17.66029873 
      326   2   -19.10769862  1.48287989  19.10769862 
      327   1   -17.64059872  2.94453979  20.57259851 
      328   2   -19.09229862  4.41588968  22.02259841 
      329   1   -17.62149873  5.87561957  23.48309830 
      330   1   -14.67889894 -26.39869809 -5.87139958 
      331   2   -16.15299883 -24.94279820 -4.41203968 
      332   1   -14.69859894 -23.49259830 -2.94184979 
      333   2   -16.17109883 -22.03359841 -1.48136989 
      334   1   -14.72029894 -20.58849852 -0.00389192 
      335   2   -16.18709883 -19.12139862  1.45749990 
      336   1   -14.73869894 -17.67769872  2.94232979 
      337   2   -16.20239883 -16.20239883  4.40505968 
      338   1   -14.76169894 -14.76169894  5.90502957 
      339   2   -16.21949883 -13.27359904  7.36171947 
      340   1   -14.77959893 -11.82929915  8.86254936 
      341   2   -16.21639883 -10.31879925  10.31879925 
      342   1   -14.77959893 -8.86254936  11.82929915 
      343   2   -16.21949883 -7.36171947  13.27359904 
      344   1   -14.76169894 -5.90502957  14.76169894 
      345   2   -16.20239883 -4.40505968  16.20239883 
      346   1   -14.73869894 -2.94232979  17.67769872 
      347   2   -16.18709883 -1.45749990  19.12139862 
      348   1   -14.72029894  0.00389192  20.58849852 
      349   2   -16.17109883  1.48136989  22.03359841 
      350   1   -14.69859894  2.94184979  23.49259830 
      351   2   -16.15299883  4.41203968  24.94279820 
      352   1   -14.67889894  5.87139958  26.39869809 
      353   1   -11.75039915 -26.40089809 -2.93857979 
      354   2   -13.22439904 -24.94649820 -1.47764989 
      355   1   -11.76799915 -23.49969830 -0.00340026 
      356   2   -13.24119904 -22.04199841  1.45880990 
      357   1   -11.78759915 -20.60039852  2.94177979 
      358   2   -13.25569904 -19.13279862  4.40502968 
      359   1   -11.80559915 -17.69559872  5.90112957 
      360   2   -13.27359904 -16.21949883  7.36171947 
      361   1   -11.82929915 -14.77959893  8.86254936 
      362   2   -13.28109904 -13.28109904  10.31999925 
      363   1   -11.84179914 -11.84179914  11.84179914 
      364   2   -13.28109904 -10.31999925  13.28109904 
      365   1   -11.82929915 -8.86254936  14.77959893 
      366   2   -13.27359904 -7.36171947  16.21949883 
      367   1   -11.80559915 -5.90112957  17.69559872 
      368   2   -13.25569904 -4.40502968  19.13279862 
      369   1   -11.78759915 -2.94177979  20.60039852 
      370   2   -13.24119904 -1.45880990  22.04199841 
      371   1   -11.76799915  0.00340025  23.49969830 
      372   2   -13.22439904  1.47764989  24.94649820 
      373   1   -11.75039915  2.93857979  26.40089809 
      374   2   -10.27669926 -27.85199799 -1.47325989 
      375   1   -8.81651936 -26.40259810 -0.00222772 
      376   2   -10.28919926 -24.94899820  1.46115990 
      377   1   -8.83077936 -23.50479831  2.94028979 
      378   2   -10.30289926 -22.04739841  4.40586968 
      379   1   -8.84720936 -20.61039851  5.89789958 
      380   2   -10.31249926 -19.13909862  7.36125947 
      381   1   -8.85734936 -17.69799872  8.85734936 
      382   2   -10.31879925 -16.21639883  10.31879925 
      383   1   -8.86254936 -14.77959893  11.82929915 
      384   2   -10.31999925 -13.28109904  13.28109904 
      385   1   -8.86254936 -11.82929915  14.77959893 
      386   2   -10.31879925 -10.31879925  16.21639883 
      387   1   -8.85734936 -8.85734936  17.69799872 
      388   2   -10.31249926 -7.36125947  19.13909862 
      389   1   -8.84720936 -5.89789958  20.61039851 
      390   2   -10.30289926 -4.40586968  22.04739841 
      391   1   -8.83077936 -2.94028979  23.50479831 
      392   2   -10.28919926 -1.46115990  24.94899820 
      393   1   -8.81651936  0.00222771  26.40259810 
      394   2   -10.27669926  1.47325989  27.85199799 
      395   2   -7.34054947 -27.85029799  1.46338989 
      396   1   -5.87817957 -26.40329809  2.93765979 
      397   2   -7.34878947 -24.95029820  4.40441968 
      398   1   -5.88760958 -23.50799830  5.88760958 
      399   2   -7.35694947 -22.05109841  7.35694947 
      400   1   -5.89789958 -20.61039851  8.84720936 
      401   2   -7.36125947 -19.13909862  10.31249926 
      402   1   -5.90112957 -17.69559872  11.80559915 
      403   2   -7.36171947 -16.21949883  13.27359904 
      404   1   -5.90502957 -14.76169894  14.76169894 
      405   2   -7.36171947 -13.27359904  16.21949883 
      406   1   -5.90112957 -11.80559915  17.69559872 
      407   2   -7.36125947 -10.31249926  19.13909862 
      408   1   -5.89789958 -8.84720936  20.61039851 
      409   2   -7.35694947 -7.35694947  22.05109841 
      410   1   -5.88760958 -5.88760958  23.50799830 
      411   2   -7.34878947 -4.40441968  24.95029820 
      412   1   -5.87817957 -2.93765979  26.40329809 
      413   2   -7.34054947 -1.46338989  27.85029799 
      414   2   -4.40188968 -27.84959799  4.40188968 
      415   1   -2.93765979 -26.40329809  5.87817957 
      416   2   -4.40441968 -24.95029820  7.34878947 
      417   1   -2.94028979 -23.50479831  8.83077936 
      418   2   -4.40586968 -22.04739841  10.30289926 
      419   1   -2.94177979 -20.60039852  11.78759915 
      420   2   -4.40502968 -19.13279862  13.25569904 
      421   1   -2.94232979 -17.67769872  14.73869894 
      422   2   -4.40505968 -16.20239883  16.20239883 
      423   1   -2.94232979 -14.73869894  17.67769872 
      424   2   -4.40502968 -13.25569904  19.13279862 
      425   1   -2.94177979 -11.78759915  20.60039852 
      426   2   -4.40586968 -10.30289926  22.04739841 
      427   1   -2.94028979 -8.83077936  23.50479831 
      428   2   -4.40441968 -7.34878947  24.95029820 
      429   1   -2.93765979 -5.87817957  26.40329809 
      430   2   -4.40188968 -4.40188968  27.84959799 
      431   2   -1.46338989 -27.85029799  7.34054947 
      432   1    0.00222771 -26.40259810  8.81651936 
      433   2   -1.46115990 -24.94899820  10.28919926 
      434   1    0.00340025 -23.49969830  11.76799915 
      435   2   -1.45880990 -22.04199841  13.24119904 
      436   1    0.00389192 -20.58849852  14.72029894 
      437   2   -1.45749990 -19.12139862  16.18709883 
      438   1    0.00473141 -17.66029873  17.66029873 
      439   2   -1.45749990 -16.18709883  19.12139862 
      440   1    0.00389192 -14.72029894  20.58849852 
      441   2   -1.45880990 -13.24119904  22.04199841 
      442   1    0.00340025 -11.76799915  23.49969830 
      443   2   -1.46115990 -10.28919926  24.94899820 
      444   1    0.00222771 -8.81651936  26.40259810 
      445   2   -1.46338989 -7.34054947  27.85029799 
      446   2    1.47325989 -27.85199799  10.27669926 
      447   1    2.93857979 -26.40089809  11.75039915 
      448   2    1.47764989 -24.94649820  13.22439904 
      449   1    2.94184979 -23.49259830  14.69859894 
      450   2    1.48136989 -22.03359841  16.17109883 
      451   1    2.94453979 -20.57259851  17.64059872 
      452   2    1.48287989 -19.10769862  19.10769862 
      453   1    2.94453979 -17.64059872  20.57259851 
      454   2    1.48136989 -16.17109883  22.03359841 
      455   1    2.94184979 -14.69859894  23.49259830 
      456   2    1.47764989 -13.22439904  24.94649820 
      457   1    2.93857979 -11.75039915  26.40089809 
      458   2    1.47325989 -10.27669926  27.85199799 
      459   1    5.87139958 -26.39869809  14.67889894 
      460   2    4.41203968 -24.94279820  16.15299883 
      461   1    5.87561957 -23.48309830  17.62149873 
      462   2    4.41588968 -22.02259841  19.09229862 
      463   1    5.87751957 -20.55709852  20.55709852 
      464   2    4.41588968 -19.09229862  22.02259841 
      465   1    5.87561957 -17.62149873  23.48309830 
      466   2    4.41203968 -16.15299883  24.94279820 
      467   1    5.87139958 -14.67889894  26.39869809 
      468   1   -26.40149810 -11.74659915 -8.80986937 
      469   1   -26.40439809 -8.81570936 -5.87758957 
      470   2   -27.85449799 -7.34401947 -4.40888968 
      471   1   -26.40619809 -5.88045958 -2.94126979 
      472   2   -27.85289799 -4.40720968 -1.47183989 
      473   1   -26.40729809 -2.94077979 -0.00108700 
      474   2   -27.85229799 -1.46752989  1.46752989 
      475   1   -26.40729809  0.00108699  2.94077979 
      476   2   -27.85289799  1.47183989  4.40720968 
      477   1   -26.40619809  2.94126979  5.88045958 
      478   2   -27.85449799  4.40888968  7.34401947 
      479   1   -26.40439809  5.87758957  8.81570936 
      480   1   -26.40149810  8.80986937  11.74659915 
      481   1   -23.49099831 -14.69339894 -8.81740936 
      482   2   -24.95049820 -13.22569905 -7.35227947 
      483   1   -23.50249831 -11.76789915 -5.88583957 
      484   2   -24.95519820 -10.29469925 -4.41805968 
      485   1   -23.51039830 -8.83413936 -2.94750979 
      486   2   -24.95819820 -7.35714947 -1.47828989 
      487   1   -23.51709830 -5.89351958 -0.00311845 
      488   2   -24.96009820 -4.41357968  1.46631989 
      489   1   -23.52179830 -2.94620978  2.94620978 
      490   2   -24.96009820 -1.46631989  4.41357968 
      491   1   -23.51709830  0.00311844  5.89351958 
      492   2   -24.95819820  1.47828989  7.35714947 
      493   1   -23.51039830  2.94750979  8.83413936 
      494   2   -24.95519820  4.41805968  10.29469925 
      495   1   -23.50249831  5.88583957  11.76789915 
      496   2   -24.95049820  7.35227947  13.22569905 
      497   1   -23.49099831  8.81740936  14.69339894 
      498   1   -20.55079852 -20.55079852 -11.74639915 
      499   2   -22.02159841 -19.09009862 -10.28589926 
      500   1   -20.56929852 -17.63579873 -8.82156936 
      501   2   -22.03609841 -16.17129883 -7.35976947 
      502   1   -20.58849852 -14.71769894 -5.89209958 
      503   2   -22.05049841 -13.24839905 -4.42769968 
      504   1   -20.60909851 -11.79479915 -2.95410979 
      505   2   -22.06049841 -10.31499925 -1.48700989 
      506   1   -20.62489851 -8.85616936 -0.00700480 
      507   2   -22.06849841 -7.37106947  1.46254989 
      508   1   -20.64069851 -5.90749957  2.95282979 
      509   2   -22.07479841 -4.41847968  4.41847968 
      510   1   -20.64069851 -2.95282979  5.90749957 
      511   2   -22.06849841 -1.46254989  7.37106947 
      512   1   -20.62489851  0.00700480  8.85616936 
      513   2   -22.06049841  1.48700989  10.31499925 
      514   1   -20.60909851  2.95410979  11.79479915 
      515   2   -22.05049841  4.42769968  13.24839905 
      516   1   -20.58849852  5.89209958  14.71769894 
      517   2   -22.03609841  7.35976947  16.17129883 
      518   1   -20.56929852  8.82156936  17.63579873 
      519   2   -22.02159841  10.28589926  19.09009862 
      520   1   -20.55079852  11.74639915  20.55079852 
      521   2   -19.09009862 -22.02159841 -10.28589926 
      522   1   -17.63579873 -20.56929852 -8.82156936 
      523   2   -19.10949862 -19.10949862 -7.36275947 
      524   1   -17.65959873 -17.65959873 -5.89492957 
      525   2   -19.13039862 -16.19559883 -4.43399968 
      526   1   -17.68689872 -14.74799894 -2.96042979 
      527   2   -19.15319862 -13.27749904 -1.49591989 
      528   1   -17.71869872 -11.82949915 -0.01309970 
      529   2   -19.16979862 -10.33809925  1.45427989 
      530   1   -17.75469872 -8.88220936  2.95973979 
      531   2   -19.18769861 -7.38410947  4.42361968 
      532   1   -17.76039872 -5.92630957  5.92630957 
      533   2   -19.18769861 -4.42361968  7.38410947 
      534   1   -17.75469872 -2.95973979  8.88220936 
      535   2   -19.16979862 -1.45427989  10.33809925 
      536   1   -17.71869872  0.01309970  11.82949915 
      537   2   -19.15319862  1.49591989  13.27749904 
      538   1   -17.68689872  2.96042979  14.74799894 
      539   2   -19.13039862  4.43399968  16.19559883 
      540   1   -17.65959873  5.89492957  17.65959873 
      541   2   -19.10949862  7.36275947  19.10949862 