LAMMPS configuration data file

  2425 atoms

  2 atom types

  -44.233200  44.233200  xlo xhi
  -44.233200  44.233200  ylo yhi
  -44.233200  44.233200  zlo zhi

 Masses

  1   78.960
  2   112.411

 Atoms

        1   1   -21.20405000 -12.11660000  3.02915000 
        2   1   -21.20405000 -9.08745000  6.05830000 
        3   2   -22.71862500 -7.57287500  7.57287500 
        4   1   -21.20405000 -6.05830000  9.08745000 
        5   1   -21.20405000 -3.02915000  12.11660000 
        6   1   -18.17490000 -15.14575000  3.02915000 
        7   2   -19.68947500 -13.63117500  4.54372500 
        8   1   -18.17490000 -12.11660000  6.05830000 
        9   2   -19.68947500 -10.60202500  7.57287500 
       10   1   -18.17490000 -9.08745000  9.08745000 
       11   2   -19.68947500 -7.57287500  10.60202500 
       12   1   -18.17490000 -6.05830000  12.11660000 
       13   2   -19.68947500 -4.54372500  13.63117500 
       14   1   -18.17490000 -3.02915000  15.14575000 
       15   1   -15.14575000 -18.17490000  3.02915000 
       16   2   -16.66032500 -16.66032500  4.54372500 
       17   1   -15.14575000 -15.14575000  6.05830000 
       18   2   -16.66032500 -13.63117500  7.57287500 
       19   1   -15.14575000 -12.11660000  9.08745000 
       20   2   -16.66032500 -10.60202500  10.60202500 
       21   1   -15.14575000 -9.08745000  12.11660000 
       22   2   -16.66032500 -7.57287500  13.63117500 
       23   1   -15.14575000 -6.05830000  15.14575000 
       24   2   -16.66032500 -4.54372500  16.66032500 
       25   1   -15.14575000 -3.02915000  18.17490000 
       26   1   -12.11660000 -21.20405000  3.02915000 
       27   2   -13.63117500 -19.68947500  4.54372500 
       28   1   -12.11660000 -18.17490000  6.05830000 
       29   2   -13.63117500 -16.66032500  7.57287500 
       30   1   -12.11660000 -15.14575000  9.08745000 
       31   2   -13.63117500 -13.63117500  10.60202500 
       32   1   -12.11660000 -12.11660000  12.11660000 
       33   2   -13.63117500 -10.60202500  13.63117500 
       34   1   -12.11660000 -9.08745000  15.14575000 
       35   2   -13.63117500 -7.57287500  16.66032500 
       36   1   -12.11660000 -6.05830000  18.17490000 
       37   2   -13.63117500 -4.54372500  19.68947500 
       38   1   -12.11660000 -3.02915000  21.20405000 
       39   1   -9.08745000 -21.20405000  6.05830000 
       40   2   -10.60202500 -19.68947500  7.57287500 
       41   1   -9.08745000 -18.17490000  9.08745000 
       42   2   -10.60202500 -16.66032500  10.60202500 
       43   1   -9.08745000 -15.14575000  12.11660000 
       44   2   -10.60202500 -13.63117500  13.63117500 
       45   1   -9.08745000 -12.11660000  15.14575000 
       46   2   -10.60202500 -10.60202500  16.66032500 
       47   1   -9.08745000 -9.08745000  18.17490000 
       48   2   -10.60202500 -7.57287500  19.68947500 
       49   1   -9.08745000 -6.05830000  21.20405000 
       50   2   -7.57287500 -22.71862500  7.57287500 
       51   1   -6.05830000 -21.20405000  9.08745000 
       52   2   -7.57287500 -19.68947500  10.60202500 
       53   1   -6.05830000 -18.17490000  12.11660000 
       54   2   -7.57287500 -16.66032500  13.63117500 
       55   1   -6.05830000 -15.14575000  15.14575000 
       56   2   -7.57287500 -13.63117500  16.66032500 
       57   1   -6.05830000 -12.11660000  18.17490000 
       58   2   -7.57287500 -10.60202500  19.68947500 
       59   1   -6.05830000 -9.08745000  21.20405000 
       60   2   -7.57287500 -7.57287500  22.71862500 
       61   1   -3.02915000 -21.20405000  12.11660000 
       62   2   -4.54372500 -19.68947500  13.63117500 
       63   1   -3.02915000 -18.17490000  15.14575000 
       64   2   -4.54372500 -16.66032500  16.66032500 
       65   1   -3.02915000 -15.14575000  18.17490000 
       66   2   -4.54372500 -13.63117500  19.68947500 
       67   1   -3.02915000 -12.11660000  21.20405000 
       68   1   -24.23320000 -6.05830000  0.00000000 
       69   1   -24.23320000 -3.02915000  3.02915000 
       70   1   -24.23320000  0.00000000  6.05830000 
       71   1   -21.20405000 -12.11660000 -3.02915000 
       72   2   -22.71862500 -10.60202500 -1.51457500 
       73   1   -21.20405000 -9.08745000  0.00000000 
       74   2   -22.71862500 -7.57287500  1.51457500 
       75   1   -21.20405000 -6.05830000  3.02915000 
       76   2   -22.71862500 -4.54372500  4.54372500 
       77   1   -21.20405000 -3.02915000  6.05830000 
       78   2   -22.71862500 -1.51457500  7.57287500 
       79   1   -21.20405000  0.00000000  9.08745000 
       80   2   -22.71862500  1.51457500  10.60202500 
       81   1   -21.20405000  3.02915000  12.11660000 
       82   1   -18.17490000 -15.14575000 -3.02915000 
       83   2   -19.68947500 -13.63117500 -1.51457500 
       84   1   -18.17490000 -12.11660000  0.00000000 
       85   2   -19.68947500 -10.60202500  1.51457500 
       86   1   -18.17490000 -9.08745000  3.02915000 
       87   2   -19.68947500 -7.57287500  4.54372500 
       88   1   -18.17490000 -6.05830000  6.05830000 
       89   2   -19.68947500 -4.54372500  7.57287500 
       90   1   -18.17490000 -3.02915000  9.08745000 
       91   2   -19.68947500 -1.51457500  10.60202500 
       92   1   -18.17490000  0.00000000  12.11660000 
       93   2   -19.68947500  1.51457500  13.63117500 
       94   1   -18.17490000  3.02915000  15.14575000 
       95   1   -15.14575000 -18.17490000 -3.02915000 
       96   2   -16.66032500 -16.66032500 -1.51457500 
       97   1   -15.14575000 -15.14575000  0.00000000 
       98   2   -16.66032500 -13.63117500  1.51457500 
       99   1   -15.14575000 -12.11660000  3.02915000 
      100   2   -16.66032500 -10.60202500  4.54372500 
      101   1   -15.14575000 -9.08745000  6.05830000 
      102   2   -16.66032500 -7.57287500  7.57287500 
      103   1   -15.14575000 -6.05830000  9.08745000 
      104   2   -16.66032500 -4.54372500  10.60202500 
      105   1   -15.14575000 -3.02915000  12.11660000 
      106   2   -16.66032500 -1.51457500  13.63117500 
      107   1   -15.14575000  0.00000000  15.14575000 
      108   2   -16.66032500  1.51457500  16.66032500 
      109   1   -15.14575000  3.02915000  18.17490000 
      110   1   -12.11660000 -21.20405000 -3.02915000 
      111   2   -13.63117500 -19.68947500 -1.51457500 
      112   1   -12.11660000 -18.17490000  0.00000000 
      113   2   -13.63117500 -16.66032500  1.51457500 
      114   1   -12.11660000 -15.14575000  3.02915000 
      115   2   -13.63117500 -13.63117500  4.54372500 
      116   1   -12.11660000 -12.11660000  6.05830000 
      117   2   -13.63117500 -10.60202500  7.57287500 
      118   1   -12.11660000 -9.08745000  9.08745000 
      119   2   -13.63117500 -7.57287500  10.60202500 
      120   1   -12.11660000 -6.05830000  12.11660000 
      121   2   -13.63117500 -4.54372500  13.63117500 
      122   1   -12.11660000 -3.02915000  15.14575000 
      123   2   -13.63117500 -1.51457500  16.66032500 
      124   1   -12.11660000  0.00000000  18.17490000 
      125   2   -13.63117500  1.51457500  19.68947500 
      126   1   -12.11660000  3.02915000  21.20405000 
      127   2   -10.60202500 -22.71862500 -1.51457500 
      128   1   -9.08745000 -21.20405000  0.00000000 
      129   2   -10.60202500 -19.68947500  1.51457500 
      130   1   -9.08745000 -18.17490000  3.02915000 
      131   2   -10.60202500 -16.66032500  4.54372500 
      132   1   -9.08745000 -15.14575000  6.05830000 
      133   2   -10.60202500 -13.63117500  7.57287500 
      134   1   -9.08745000 -12.11660000  9.08745000 
      135   2   -10.60202500 -10.60202500  10.60202500 
      136   1   -9.08745000 -9.08745000  12.11660000 
      137   2   -10.60202500 -7.57287500  13.63117500 
      138   1   -9.08745000 -6.05830000  15.14575000 
      139   2   -10.60202500 -4.54372500  16.66032500 
      140   1   -9.08745000 -3.02915000  18.17490000 
      141   2   -10.60202500 -1.51457500  19.68947500 
      142   1   -9.08745000  0.00000000  21.20405000 
      143   2   -10.60202500  1.51457500  22.71862500 
      144   1   -6.05830000 -24.23320000  0.00000000 
      145   2   -7.57287500 -22.71862500  1.51457500 
      146   1   -6.05830000 -21.20405000  3.02915000 
      147   2   -7.57287500 -19.68947500  4.54372500 
      148   1   -6.05830000 -18.17490000  6.05830000 
      149   2   -7.57287500 -16.66032500  7.57287500 
      150   1   -6.05830000 -15.14575000  9.08745000 
      151   2   -7.57287500 -13.63117500  10.60202500 
      152   1   -6.05830000 -12.11660000  12.11660000 
      153   2   -7.57287500 -10.60202500  13.63117500 
      154   1   -6.05830000 -9.08745000  15.14575000 
      155   2   -7.57287500 -7.57287500  16.66032500 
      156   1   -6.05830000 -6.05830000  18.17490000 
      157   2   -7.57287500 -4.54372500  19.68947500 
      158   1   -6.05830000 -3.02915000  21.20405000 
      159   2   -7.57287500 -1.51457500  22.71862500 
      160   1   -6.05830000  0.00000000  24.23320000 
      161   1   -3.02915000 -24.23320000  3.02915000 
      162   2   -4.54372500 -22.71862500  4.54372500 
      163   1   -3.02915000 -21.20405000  6.05830000 
      164   2   -4.54372500 -19.68947500  7.57287500 
      165   1   -3.02915000 -18.17490000  9.08745000 
      166   2   -4.54372500 -16.66032500  10.60202500 
      167   1   -3.02915000 -15.14575000  12.11660000 
      168   2   -4.54372500 -13.63117500  13.63117500 
      169   1   -3.02915000 -12.11660000  15.14575000 
      170   2   -4.54372500 -10.60202500  16.66032500 
      171   1   -3.02915000 -9.08745000  18.17490000 
      172   2   -4.54372500 -7.57287500  19.68947500 
      173   1   -3.02915000 -6.05830000  21.20405000 
      174   2   -4.54372500 -4.54372500  22.71862500 
      175   1   -3.02915000 -3.02915000  24.23320000 
      176   1    0.00000000 -24.23320000  6.05830000 
      177   2   -1.51457500 -22.71862500  7.57287500 
      178   1    0.00000000 -21.20405000  9.08745000 
      179   2   -1.51457500 -19.68947500  10.60202500 
      180   1    0.00000000 -18.17490000  12.11660000 
      181   2   -1.51457500 -16.66032500  13.63117500 
      182   1    0.00000000 -15.14575000  15.14575000 
      183   2   -1.51457500 -13.63117500  16.66032500 
      184   1    0.00000000 -12.11660000  18.17490000 
      185   2   -1.51457500 -10.60202500  19.68947500 
      186   1    0.00000000 -9.08745000  21.20405000 
      187   2   -1.51457500 -7.57287500  22.71862500 
      188   1    0.00000000 -6.05830000  24.23320000 
      189   2    1.51457500 -22.71862500  10.60202500 
      190   1    3.02915000 -21.20405000  12.11660000 
      191   2    1.51457500 -19.68947500  13.63117500 
      192   1    3.02915000 -18.17490000  15.14575000 
      193   2    1.51457500 -16.66032500  16.66032500 
      194   1    3.02915000 -15.14575000  18.17490000 
      195   2    1.51457500 -13.63117500  19.68947500 
      196   1    3.02915000 -12.11660000  21.20405000 
      197   2    1.51457500 -10.60202500  22.71862500 
      198   1   -24.23320000 -3.02915000 -3.02915000 
      199   1   -24.23320000  0.00000000  0.00000000 
      200   1   -24.23320000  3.02915000  3.02915000 
      201   1   -21.20405000 -9.08745000 -6.05830000 
      202   2   -22.71862500 -7.57287500 -4.54372500 
      203   1   -21.20405000 -6.05830000 -3.02915000 
      204   2   -22.71862500 -4.54372500 -1.51457500 
      205   1   -21.20405000 -3.02915000  0.00000000 
      206   2   -22.71862500 -1.51457500  1.51457500 
      207   1   -21.20405000  0.00000000  3.02915000 
      208   2   -22.71862500  1.51457500  4.54372500 
      209   1   -21.20405000  3.02915000  6.05830000 
      210   2   -22.71862500  4.54372500  7.57287500 
      211   1   -21.20405000  6.05830000  9.08745000 
      212   1   -18.17490000 -15.14575000 -9.08745000 
      213   2   -19.68947500 -13.63117500 -7.57287500 
      214   1   -18.17490000 -12.11660000 -6.05830000 
      215   2   -19.68947500 -10.60202500 -4.54372500 
      216   1   -18.17490000 -9.08745000 -3.02915000 
      217   2   -19.68947500 -7.57287500 -1.51457500 
      218   1   -18.17490000 -6.05830000  0.00000000 
      219   2   -19.68947500 -4.54372500  1.51457500 
      220   1   -18.17490000 -3.02915000  3.02915000 
      221   2   -19.68947500 -1.51457500  4.54372500 
      222   1   -18.17490000  0.00000000  6.05830000 
      223   2   -19.68947500  1.51457500  7.57287500 
      224   1   -18.17490000  3.02915000  9.08745000 
      225   2   -19.68947500  4.54372500  10.60202500 
      226   1   -18.17490000  6.05830000  12.11660000 
      227   2   -19.68947500  7.57287500  13.63117500 
      228   1   -18.17490000  9.08745000  15.14575000 
      229   1   -15.14575000 -18.17490000 -9.08745000 
      230   2   -16.66032500 -16.66032500 -7.57287500 
      231   1   -15.14575000 -15.14575000 -6.05830000 
      232   2   -16.66032500 -13.63117500 -4.54372500 
      233   1   -15.14575000 -12.11660000 -3.02915000 
      234   2   -16.66032500 -10.60202500 -1.51457500 
      235   1   -15.14575000 -9.08745000  0.00000000 
      236   2   -16.66032500 -7.57287500  1.51457500 
      237   1   -15.14575000 -6.05830000  3.02915000 
      238   2   -16.66032500 -4.54372500  4.54372500 
      239   1   -15.14575000 -3.02915000  6.05830000 
      240   2   -16.66032500 -1.51457500  7.57287500 
      241   1   -15.14575000  0.00000000  9.08745000 
      242   2   -16.66032500  1.51457500  10.60202500 
      243   1   -15.14575000  3.02915000  12.11660000 
      244   2   -16.66032500  4.54372500  13.63117500 
      245   1   -15.14575000  6.05830000  15.14575000 
      246   2   -16.66032500  7.57287500  16.66032500 
      247   1   -15.14575000  9.08745000  18.17490000 
      248   2   -13.63117500 -19.68947500 -7.57287500 
      249   1   -12.11660000 -18.17490000 -6.05830000 
      250   2   -13.63117500 -16.66032500 -4.54372500 
      251   1   -12.11660000 -15.14575000 -3.02915000 
      252   2   -13.63117500 -13.63117500 -1.51457500 
      253   1   -12.11660000 -12.11660000  0.00000000 
      254   2   -13.63117500 -10.60202500  1.51457500 
      255   1   -12.11660000 -9.08745000  3.02915000 
      256   2   -13.63117500 -7.57287500  4.54372500 
      257   1   -12.11660000 -6.05830000  6.05830000 
      258   2   -13.63117500 -4.54372500  7.57287500 
      259   1   -12.11660000 -3.02915000  9.08745000 
      260   2   -13.63117500 -1.51457500  10.60202500 
      261   1   -12.11660000  0.00000000  12.11660000 
      262   2   -13.63117500  1.51457500  13.63117500 
      263   1   -12.11660000  3.02915000  15.14575000 
      264   2   -13.63117500  4.54372500  16.66032500 
      265   1   -12.11660000  6.05830000  18.17490000 
      266   2   -13.63117500  7.57287500  19.68947500 
      267   1   -9.08745000 -21.20405000 -6.05830000 
      268   2   -10.60202500 -19.68947500 -4.54372500 
      269   1   -9.08745000 -18.17490000 -3.02915000 
      270   2   -10.60202500 -16.66032500 -1.51457500 
      271   1   -9.08745000 -15.14575000  0.00000000 
      272   2   -10.60202500 -13.63117500  1.51457500 
      273   1   -9.08745000 -12.11660000  3.02915000 
      274   2   -10.60202500 -10.60202500  4.54372500 
      275   1   -9.08745000 -9.08745000  6.05830000 
      276   2   -10.60202500 -7.57287500  7.57287500 
      277   1   -9.08745000 -6.05830000  9.08745000 
      278   2   -10.60202500 -4.54372500  10.60202500 
      279   1   -9.08745000 -3.02915000  12.11660000 
      280   2   -10.60202500 -1.51457500  13.63117500 
      281   1   -9.08745000  0.00000000  15.14575000 
      282   2   -10.60202500  1.51457500  16.66032500 
      283   1   -9.08745000  3.02915000  18.17490000 
      284   2   -10.60202500  4.54372500  19.68947500 
      285   1   -9.08745000  6.05830000  21.20405000 
      286   2   -7.57287500 -22.71862500 -4.54372500 
      287   1   -6.05830000 -21.20405000 -3.02915000 
      288   2   -7.57287500 -19.68947500 -1.51457500 
      289   1   -6.05830000 -18.17490000  0.00000000 
      290   2   -7.57287500 -16.66032500  1.51457500 
      291   1   -6.05830000 -15.14575000  3.02915000 
      292   2   -7.57287500 -13.63117500  4.54372500 
      293   1   -6.05830000 -12.11660000  6.05830000 
      294   2   -7.57287500 -10.60202500  7.57287500 
      295   1   -6.05830000 -9.08745000  9.08745000 
      296   2   -7.57287500 -7.57287500  10.60202500 
      297   1   -6.05830000 -6.05830000  12.11660000 
      298   2   -7.57287500 -4.54372500  13.63117500 
      299   1   -6.05830000 -3.02915000  15.14575000 
      300   2   -7.57287500 -1.51457500  16.66032500 
      301   1   -6.05830000  0.00000000  18.17490000 
      302   2   -7.57287500  1.51457500  19.68947500 
      303   1   -6.05830000  3.02915000  21.20405000 
      304   2   -7.57287500  4.54372500  22.71862500 
      305   1   -3.02915000 -24.23320000 -3.02915000 
      306   2   -4.54372500 -22.71862500 -1.51457500 
      307   1   -3.02915000 -21.20405000  0.00000000 
      308   2   -4.54372500 -19.68947500  1.51457500 
      309   1   -3.02915000 -18.17490000  3.02915000 
      310   2   -4.54372500 -16.66032500  4.54372500 
      311   1   -3.02915000 -15.14575000  6.05830000 
      312   2   -4.54372500 -13.63117500  7.57287500 
      313   1   -3.02915000 -12.11660000  9.08745000 
      314   2   -4.54372500 -10.60202500  10.60202500 
      315   1   -3.02915000 -9.08745000  12.11660000 
      316   2   -4.54372500 -7.57287500  13.63117500 
      317   1   -3.02915000 -6.05830000  15.14575000 
      318   2   -4.54372500 -4.54372500  16.66032500 
      319   1   -3.02915000 -3.02915000  18.17490000 
      320   2   -4.54372500 -1.51457500  19.68947500 
      321   1   -3.02915000  0.00000000  21.20405000 
      322   2   -4.54372500  1.51457500  22.71862500 
      323   1   -3.02915000  3.02915000  24.23320000 
      324   1    0.00000000 -24.23320000  0.00000000 
      325   2   -1.51457500 -22.71862500  1.51457500 
      326   1    0.00000000 -21.20405000  3.02915000 
      327   2   -1.51457500 -19.68947500  4.54372500 
      328   1    0.00000000 -18.17490000  6.05830000 
      329   2   -1.51457500 -16.66032500  7.57287500 
      330   1    0.00000000 -15.14575000  9.08745000 
      331   2   -1.51457500 -13.63117500  10.60202500 
      332   1    0.00000000 -12.11660000  12.11660000 
      333   2   -1.51457500 -10.60202500  13.63117500 
      334   1    0.00000000 -9.08745000  15.14575000 
      335   2   -1.51457500 -7.57287500  16.66032500 
      336   1    0.00000000 -6.05830000  18.17490000 
      337   2   -1.51457500 -4.54372500  19.68947500 
      338   1    0.00000000 -3.02915000  21.20405000 
      339   2   -1.51457500 -1.51457500  22.71862500 
      340   1    0.00000000  0.00000000  24.23320000 
      341   1    3.02915000 -24.23320000  3.02915000 
      342   2    1.51457500 -22.71862500  4.54372500 
      343   1    3.02915000 -21.20405000  6.05830000 
      344   2    1.51457500 -19.68947500  7.57287500 
      345   1    3.02915000 -18.17490000  9.08745000 
      346   2    1.51457500 -16.66032500  10.60202500 
      347   1    3.02915000 -15.14575000  12.11660000 
      348   2    1.51457500 -13.63117500  13.63117500 
      349   1    3.02915000 -12.11660000  15.14575000 
      350   2    1.51457500 -10.60202500  16.66032500 
      351   1    3.02915000 -9.08745000  18.17490000 
      352   2    1.51457500 -7.57287500  19.68947500 
      353   1    3.02915000 -6.05830000  21.20405000 
      354   2    1.51457500 -4.54372500  22.71862500 
      355   1    3.02915000 -3.02915000  24.23320000 
      356   2    4.54372500 -22.71862500  7.57287500 
      357   1    6.05830000 -21.20405000  9.08745000 
      358   2    4.54372500 -19.68947500  10.60202500 
      359   1    6.05830000 -18.17490000  12.11660000 
      360   2    4.54372500 -16.66032500  13.63117500 
      361   1    6.05830000 -15.14575000  15.14575000 
      362   2    4.54372500 -13.63117500  16.66032500 
      363   1    6.05830000 -12.11660000  18.17490000 
      364   2    4.54372500 -10.60202500  19.68947500 
      365   1    6.05830000 -9.08745000  21.20405000 
      366   2    4.54372500 -7.57287500  22.71862500 
      367   2    7.57287500 -19.68947500  13.63117500 
      368   1    9.08745000 -18.17490000  15.14575000 
      369   2    7.57287500 -16.66032500  16.66032500 
      370   1    9.08745000 -15.14575000  18.17490000 
      371   2    7.57287500 -13.63117500  19.68947500 
      372   1   -24.23320000  0.00000000 -6.05830000 
      373   1   -24.23320000  3.02915000 -3.02915000 
      374   1   -24.23320000  6.05830000  0.00000000 
      375   1   -21.20405000 -6.05830000 -9.08745000 
      376   2   -22.71862500 -4.54372500 -7.57287500 
      377   1   -21.20405000 -3.02915000 -6.05830000 
      378   2   -22.71862500 -1.51457500 -4.54372500 
      379   1   -21.20405000  0.00000000 -3.02915000 
      380   2   -22.71862500  1.51457500 -1.51457500 
      381   1   -21.20405000  3.02915000  0.00000000 
      382   2   -22.71862500  4.54372500  1.51457500 
      383   1   -21.20405000  6.05830000  3.02915000 
      384   2   -22.71862500  7.57287500  4.54372500 
      385   1   -21.20405000  9.08745000  6.05830000 
      386   1   -18.17490000 -12.11660000 -12.11660000 
      387   2   -19.68947500 -10.60202500 -10.60202500 
      388   1   -18.17490000 -9.08745000 -9.08745000 
      389   2   -19.68947500 -7.57287500 -7.57287500 
      390   1   -18.17490000 -6.05830000 -6.05830000 
      391   2   -19.68947500 -4.54372500 -4.54372500 
      392   1   -18.17490000 -3.02915000 -3.02915000 
      393   2   -19.68947500 -1.51457500 -1.51457500 
      394   1   -18.17490000  0.00000000  0.00000000 
      395   2   -19.68947500  1.51457500  1.51457500 
      396   1   -18.17490000  3.02915000  3.02915000 
      397   2   -19.68947500  4.54372500  4.54372500 
      398   1   -18.17490000  6.05830000  6.05830000 
      399   2   -19.68947500  7.57287500  7.57287500 
      400   1   -18.17490000  9.08745000  9.08745000 
      401   2   -19.68947500  10.60202500  10.60202500 
      402   1   -18.17490000  12.11660000  12.11660000 
      403   1   -15.14575000 -15.14575000 -12.11660000 
      404   2   -16.66032500 -13.63117500 -10.60202500 
      405   1   -15.14575000 -12.11660000 -9.08745000 
      406   2   -16.66032500 -10.60202500 -7.57287500 
      407   1   -15.14575000 -9.08745000 -6.05830000 
      408   2   -16.66032500 -7.57287500 -4.54372500 
      409   1   -15.14575000 -6.05830000 -3.02915000 
      410   2   -16.66032500 -4.54372500 -1.51457500 
      411   1   -15.14575000 -3.02915000  0.00000000 
      412   2   -16.66032500 -1.51457500  1.51457500 
      413   1   -15.14575000  0.00000000  3.02915000 
      414   2   -16.66032500  1.51457500  4.54372500 
      415   1   -15.14575000  3.02915000  6.05830000 
      416   2   -16.66032500  4.54372500  7.57287500 
      417   1   -15.14575000  6.05830000  9.08745000 
      418   2   -16.66032500  7.57287500  10.60202500 
      419   1   -15.14575000  9.08745000  12.11660000 
      420   2   -16.66032500  10.60202500  13.63117500 
      421   1   -15.14575000  12.11660000  15.14575000 
      422   1   -12.11660000 -18.17490000 -12.11660000 
      423   2   -13.63117500 -16.66032500 -10.60202500 
      424   1   -12.11660000 -15.14575000 -9.08745000 
      425   2   -13.63117500 -13.63117500 -7.57287500 
      426   1   -12.11660000 -12.11660000 -6.05830000 
      427   2   -13.63117500 -10.60202500 -4.54372500 
      428   1   -12.11660000 -9.08745000 -3.02915000 
      429   2   -13.63117500 -7.57287500 -1.51457500 
      430   1   -12.11660000 -6.05830000  0.00000000 
      431   2   -13.63117500 -4.54372500  1.51457500 
      432   1   -12.11660000 -3.02915000  3.02915000 
      433   2   -13.63117500 -1.51457500  4.54372500 
      434   1   -12.11660000  0.00000000  6.05830000 
      435   2   -13.63117500  1.51457500  7.57287500 
      436   1   -12.11660000  3.02915000  9.08745000 
      437   2   -13.63117500  4.54372500  10.60202500 
      438   1   -12.11660000  6.05830000  12.11660000 
      439   2   -13.63117500  7.57287500  13.63117500 
      440   1   -12.11660000  9.08745000  15.14575000 
      441   2   -13.63117500  10.60202500  16.66032500 
      442   1   -12.11660000  12.11660000  18.17490000 
      443   2   -10.60202500 -19.68947500 -10.60202500 
      444   1   -9.08745000 -18.17490000 -9.08745000 
      445   2   -10.60202500 -16.66032500 -7.57287500 
      446   1   -9.08745000 -15.14575000 -6.05830000 
      447   2   -10.60202500 -13.63117500 -4.54372500 
      448   1   -9.08745000 -12.11660000 -3.02915000 
      449   2   -10.60202500 -10.60202500 -1.51457500 
      450   1   -9.08745000 -9.08745000  0.00000000 
      451   2   -10.60202500 -7.57287500  1.51457500 
      452   1   -9.08745000 -6.05830000  3.02915000 
      453   2   -10.60202500 -4.54372500  4.54372500 
      454   1   -9.08745000 -3.02915000  6.05830000 
      455   2   -10.60202500 -1.51457500  7.57287500 
      456   1   -9.08745000  0.00000000  9.08745000 
      457   2   -10.60202500  1.51457500  10.60202500 
      458   1   -9.08745000  3.02915000  12.11660000 
      459   2   -10.60202500  4.54372500  13.63117500 
      460   1   -9.08745000  6.05830000  15.14575000 
      461   2   -10.60202500  7.57287500  16.66032500 
      462   1   -9.08745000  9.08745000  18.17490000 
      463   2   -10.60202500  10.60202500  19.68947500 
      464   1   -6.05830000 -21.20405000 -9.08745000 
      465   2   -7.57287500 -19.68947500 -7.57287500 
      466   1   -6.05830000 -18.17490000 -6.05830000 
      467   2   -7.57287500 -16.66032500 -4.54372500 
      468   1   -6.05830000 -15.14575000 -3.02915000 
      469   2   -7.57287500 -13.63117500 -1.51457500 
      470   1   -6.05830000 -12.11660000  0.00000000 
      471   2   -7.57287500 -10.60202500  1.51457500 
      472   1   -6.05830000 -9.08745000  3.02915000 
      473   2   -7.57287500 -7.57287500  4.54372500 
      474   1   -6.05830000 -6.05830000  6.05830000 
      475   2   -7.57287500 -4.54372500  7.57287500 
      476   1   -6.05830000 -3.02915000  9.08745000 
      477   2   -7.57287500 -1.51457500  10.60202500 
      478   1   -6.05830000  0.00000000  12.11660000 
      479   2   -7.57287500  1.51457500  13.63117500 
      480   1   -6.05830000  3.02915000  15.14575000 
      481   2   -7.57287500  4.54372500  16.66032500 
      482   1   -6.05830000  6.05830000  18.17490000 
      483   2   -7.57287500  7.57287500  19.68947500 
      484   1   -6.05830000  9.08745000  21.20405000 
      485   2   -4.54372500 -22.71862500 -7.57287500 
      486   1   -3.02915000 -21.20405000 -6.05830000 
      487   2   -4.54372500 -19.68947500 -4.54372500 
      488   1   -3.02915000 -18.17490000 -3.02915000 
      489   2   -4.54372500 -16.66032500 -1.51457500 
      490   1   -3.02915000 -15.14575000  0.00000000 
      491   2   -4.54372500 -13.63117500  1.51457500 
      492   1   -3.02915000 -12.11660000  3.02915000 
      493   2   -4.54372500 -10.60202500  4.54372500 
      494   1   -3.02915000 -9.08745000  6.05830000 
      495   2   -4.54372500 -7.57287500  7.57287500 
      496   1   -3.02915000 -6.05830000  9.08745000 
      497   2   -4.54372500 -4.54372500  10.60202500 
      498   1   -3.02915000 -3.02915000  12.11660000 
      499   2   -4.54372500 -1.51457500  13.63117500 
      500   1   -3.02915000  0.00000000  15.14575000 
      501   2   -4.54372500  1.51457500  16.66032500 
      502   1   -3.02915000  3.02915000  18.17490000 
      503   2   -4.54372500  4.54372500  19.68947500 
      504   1   -3.02915000  6.05830000  21.20405000 
      505   2   -4.54372500  7.57287500  22.71862500 
      506   1    0.00000000 -24.23320000 -6.05830000 
      507   2   -1.51457500 -22.71862500 -4.54372500 
      508   1    0.00000000 -21.20405000 -3.02915000 
      509   2   -1.51457500 -19.68947500 -1.51457500 
      510   1    0.00000000 -18.17490000  0.00000000 
      511   2   -1.51457500 -16.66032500  1.51457500 
      512   1    0.00000000 -15.14575000  3.02915000 
      513   2   -1.51457500 -13.63117500  4.54372500 
      514   1    0.00000000 -12.11660000  6.05830000 
      515   2   -1.51457500 -10.60202500  7.57287500 
      516   1    0.00000000 -9.08745000  9.08745000 
      517   2   -1.51457500 -7.57287500  10.60202500 
      518   1    0.00000000 -6.05830000  12.11660000 
      519   2   -1.51457500 -4.54372500  13.63117500 
      520   1    0.00000000 -3.02915000  15.14575000 
      521   2   -1.51457500 -1.51457500  16.66032500 
      522   1    0.00000000  0.00000000  18.17490000 
      523   2   -1.51457500  1.51457500  19.68947500 
      524   1    0.00000000  3.02915000  21.20405000 
      525   2   -1.51457500  4.54372500  22.71862500 
      526   1    0.00000000  6.05830000  24.23320000 
      527   1    3.02915000 -24.23320000 -3.02915000 
      528   2    1.51457500 -22.71862500 -1.51457500 
      529   1    3.02915000 -21.20405000  0.00000000 
      530   2    1.51457500 -19.68947500  1.51457500 
      531   1    3.02915000 -18.17490000  3.02915000 
      532   2    1.51457500 -16.66032500  4.54372500 
      533   1    3.02915000 -15.14575000  6.05830000 
      534   2    1.51457500 -13.63117500  7.57287500 
      535   1    3.02915000 -12.11660000  9.08745000 
      536   2    1.51457500 -10.60202500  10.60202500 
      537   1    3.02915000 -9.08745000  12.11660000 
      538   2    1.51457500 -7.57287500  13.63117500 
      539   1    3.02915000 -6.05830000  15.14575000 
      540   2    1.51457500 -4.54372500  16.66032500 
      541   1    3.02915000 -3.02915000  18.17490000 
      542   2    1.51457500 -1.51457500  19.68947500 
      543   1    3.02915000  0.00000000  21.20405000 
      544   2    1.51457500  1.51457500  22.71862500 
      545   1    3.02915000  3.02915000  24.23320000 
      546   1    6.05830000 -24.23320000  0.00000000 
      547   2    4.54372500 -22.71862500  1.51457500 