LAMMPS configuration data file

  693 atoms

  4 atom types

  -50.279598  50.279598  xlo xhi
  -50.279598  50.279598  ylo yhi
  -21.511340  21.511340  zlo zhi

 Masses

  1   78.960
  2   112.411
  3   1.000
  4   1.000

 Atoms

        1   1   -28.76829792 -28.76829792  1.51116989 
        2   1   -28.76819792 -25.74439814 -1.51133989 
        3   2   -30.27949781 -24.23219825 -0.00000981 
        4   1   -28.76819792 -22.71839836  1.51126989 
        5   1   -25.74439814 -28.76819792 -1.51133989 
        6   2   -27.25629803 -27.25629803  0.00001133 
        7   1   -25.74429814 -25.74429814  1.51126989 
        8   2   -24.23219825 -30.27949781 -0.00000981 
        9   1   -22.71839836 -28.76819792  1.51126989 
       10   1   -28.76809792 -19.68949858 -1.51126989 
       11   2   -30.27959781 -18.17489869 -0.00000007 
       12   1   -28.76809792 -16.66029880  1.51126989 
       13   1   -25.74429814 -22.71849836 -1.51122989 
       14   2   -27.25629803 -21.20399847  0.00000111 
       15   1   -25.74429814 -19.68949858  1.51123989 
       16   1   -22.71849836 -25.74429814 -1.51122989 
       17   2   -24.23229825 -24.23229825 -0.00000664 
       18   1   -22.71849836 -22.71849836  1.51118989 
       19   1   -19.68949858 -28.76809792 -1.51126989 
       20   2   -21.20399847 -27.25629803  0.00000111 
       21   1   -19.68949858 -25.74429814  1.51123989 
       22   2   -18.17489869 -30.27959781 -0.00000007 
       23   1   -16.66029880 -28.76809792  1.51126989 
       24   1   -28.76809792 -13.63119902 -1.51126989 
       25   2   -30.27959781 -12.11659912  0.00000000 
       26   1   -28.76809792 -10.60199923  1.51126989 
       27   1   -25.74429814 -16.66029880 -1.51123989 
       28   2   -27.25629803 -15.14569891  0.00000000 
       29   1   -25.74429814 -13.63119902  1.51123989 
       30   1   -22.71849836 -19.68949858 -1.51118989 
       31   2   -24.23229825 -18.17489869  0.00000002 
       32   1   -22.71849836 -16.66029880  1.51118989 
       33   1   -19.68949858 -22.71849836 -1.51118989 
       34   2   -21.20399847 -21.20399847 -0.00000051 
       35   1   -19.68949858 -19.68949858  1.51119989 
       36   1   -16.66029880 -25.74429814 -1.51123989 
       37   2   -18.17489869 -24.23229825  0.00000002 
       38   1   -16.66029880 -22.71849836  1.51118989 
       39   1   -13.63119902 -28.76809792 -1.51126989 
       40   2   -15.14569891 -27.25629803  0.00000000 
       41   1   -13.63119902 -25.74429814  1.51123989 
       42   2   -12.11659912 -30.27959781  0.00000000 
       43   1   -10.60199923 -28.76809792  1.51126989 
       44   1   -28.76809792 -7.57289945 -1.51126989 
       45   2   -30.27959781 -6.05829956  0.00000000 
       46   1   -28.76809792 -4.54369967  1.51126989 
       47   1   -25.74429814 -10.60199923 -1.51123989 
       48   2   -27.25629803 -9.08744934  0.00000000 
       49   1   -25.74429814 -7.57285945  1.51123989 
       50   1   -22.71849836 -13.63119902 -1.51118989 
       51   2   -24.23229825 -12.11659912  0.00000000 
       52   1   -22.71849836 -10.60199923  1.51118989 
       53   1   -19.68949858 -16.66029880 -1.51119989 
       54   2   -21.20399847 -15.14569891  0.00000000 
       55   1   -19.68949858 -13.63119902  1.51119989 
       56   1   -16.66029880 -19.68949858 -1.51119989 
       57   2   -18.17489869 -18.17489869  0.00000001 
       58   1   -16.66029880 -16.66029880  1.51119989 
       59   1   -13.63119902 -22.71849836 -1.51118989 
       60   2   -15.14569891 -21.20399847  0.00000000 
       61   1   -13.63119902 -19.68949858  1.51119989 
       62   1   -10.60199923 -25.74429814 -1.51123989 
       63   2   -12.11659912 -24.23229825  0.00000000 
       64   1   -10.60199923 -22.71849836  1.51118989 
       65   1   -7.57289945 -28.76809792 -1.51126989 
       66   2   -9.08744934 -27.25629803  0.00000000 
       67   1   -7.57285945 -25.74429814  1.51123989 
       68   2   -6.05829956 -30.27959781  0.00000000 
       69   1   -4.54369967 -28.76809792  1.51126989 
       70   1   -28.76809792 -1.51459989 -1.51126989 
       71   2   -30.27959781 -0.00000000 -0.00000000 
       72   1   -28.76809792  1.51459989  1.51126989 
       73   1   -25.74429814 -4.54373967 -1.51123989 
       74   2   -27.25629803 -3.02914978  0.00000000 
       75   1   -25.74429814 -1.51455989  1.51123989 
       76   1   -22.71849836 -7.57287945 -1.51118989 
       77   2   -24.23229825 -6.05829956  0.00000000 
       78   1   -22.71849836 -4.54371967  1.51118989 
       79   1   -19.68949858 -10.60199923 -1.51119989 
       80   2   -21.20399847 -9.08744934 -0.00000000 
       81   1   -19.68949858 -7.57287945  1.51119989 
       82   1   -16.66029880 -13.63119902 -1.51119989 
       83   2   -18.17489869 -12.11659912  0.00000000 
       84   1   -16.66029880 -10.60199923  1.51119989 
       85   1   -13.63119902 -16.66029880 -1.51119989 
       86   2   -15.14569891 -15.14569891  0.00000000 
       87   1   -13.63119902 -13.63119902  1.51119989 
       88   1   -10.60199923 -19.68949858 -1.51119989 
       89   2   -12.11659912 -18.17489869  0.00000000 
       90   1   -10.60199923 -16.66029880  1.51119989 
       91   1   -7.57287945 -22.71849836 -1.51118989 
       92   2   -9.08744934 -21.20399847 -0.00000000 
       93   1   -7.57287945 -19.68949858  1.51119989 
       94   1   -4.54373967 -25.74429814 -1.51123989 
       95   2   -6.05829956 -24.23229825  0.00000000 
       96   1   -4.54371967 -22.71849836  1.51118989 
       97   1   -1.51459989 -28.76809792 -1.51126989 
       98   2   -3.02914978 -27.25629803  0.00000000 
       99   1   -1.51455989 -25.74429814  1.51123989 
      100   2    0.00000000 -30.27959781  0.00000000 
      101   1    1.51459989 -28.76809792  1.51126989 
      102   1   -28.76809792  4.54369967 -1.51126989 
      103   2   -30.27959781  6.05829956  0.00000000 
      104   1   -28.76809792  7.57289945  1.51126989 
      105   1   -25.74429814  1.51455989 -1.51123989 
      106   2   -27.25629803  3.02914978 -0.00000000 
      107   1   -25.74429814  4.54373967  1.51123989 
      108   1   -22.71849836 -1.51457989 -1.51118989 
      109   2   -24.23229825 -0.00000000  0.00000000 
      110   1   -22.71849836  1.51457989  1.51118989 
      111   1   -19.68949858 -4.54371967 -1.51119989 
      112   2   -21.20399847 -3.02914978  0.00000000 
      113   1   -19.68949858 -1.51457989  1.51119989 
      114   1   -16.66029880 -7.57287945 -1.51119989 
      115   2   -18.17489869 -6.05829956 -0.00000000 
      116   1   -16.66029880 -4.54371967  1.51119989 
      117   1   -13.63119902 -10.60199923 -1.51119989 
      118   2   -15.14569891 -9.08744934 -0.00000000 
      119   1   -13.63119902 -7.57286945  1.51119989 
      120   1   -10.60199923 -13.63119902 -1.51119989 
      121   2   -12.11659912 -12.11659912  0.00000000 
      122   1   -10.60199923 -10.60199923  1.51119989 
      123   1   -7.57287945 -16.66029880 -1.51119989 
      124   2   -9.08744934 -15.14569891 -0.00000000 
      125   1   -7.57286945 -13.63119902  1.51119989 
      126   1   -4.54371967 -19.68949858 -1.51119989 
      127   2   -6.05829956 -18.17489869 -0.00000000 
      128   1   -4.54371967 -16.66029880  1.51119989 
      129   1   -1.51457989 -22.71849836 -1.51118989 
      130   2   -3.02914978 -21.20399847  0.00000000 
      131   1   -1.51457989 -19.68949858  1.51119989 
      132   1    1.51455989 -25.74429814 -1.51123989 
      133   2    0.00000000 -24.23229825  0.00000000 
      134   1    1.51457989 -22.71849836  1.51118989 
      135   1    4.54369967 -28.76809792 -1.51126989 
      136   2    3.02914978 -27.25629803 -0.00000000 
      137   1    4.54373967 -25.74429814  1.51123989 
      138   2    6.05829956 -30.27959781 -0.00000000 
      139   1    7.57289945 -28.76809792  1.51126989 
      140   1   -28.76809792  10.60199923 -1.51126989 
      141   2   -30.27959781  12.11659912 -0.00000000 
      142   1   -28.76809792  13.63119902  1.51126989 
      143   1   -25.74429814  7.57285945 -1.51123989 
      144   2   -27.25629803  9.08744934 -0.00000000 
      145   1   -25.74429814  10.60199923  1.51123989 
      146   1   -22.71849836  4.54371967 -1.51118989 
      147   2   -24.23229825  6.05829956 -0.00000000 
      148   1   -22.71849836  7.57287945  1.51118989 
      149   1   -19.68949858  1.51457989 -1.51119989 
      150   2   -21.20399847  3.02914978 -0.00000000 
      151   1   -19.68949858  4.54371967  1.51119989 
      152   1   -16.66029880 -1.51457989 -1.51119989 
      153   2   -18.17489869  0.00000000  0.00000000 
      154   1   -16.66029880  1.51457989  1.51119989 
      155   1   -13.63119902 -4.54372967 -1.51119989 
      156   2   -15.14569891 -3.02914978 -0.00000000 
      157   1   -13.63119902 -1.51456989  1.51119989 
      158   1   -10.60199923 -7.57287945 -1.51119989 
      159   2   -12.11659912 -6.05829956 -0.00000000 
      160   1   -10.60199923 -4.54372967  1.51119989 
      161   1   -7.57286945 -10.60199923 -1.51119989 
      162   2   -9.08744934 -9.08744934  0.00000000 
      163   1   -7.57287945 -7.57287945  1.51119989 
      164   1   -4.54372967 -13.63119902 -1.51119989 
      165   2   -6.05829956 -12.11659912 -0.00000000 
      166   1   -4.54371967 -10.60199923  1.51119989 
      167   1   -1.51457989 -16.66029880 -1.51119989 
      168   2   -3.02914978 -15.14569891 -0.00000000 
      169   1   -1.51456989 -13.63119902  1.51119989 
      170   1    1.51457989 -19.68949858 -1.51119989 
      171   2    0.00000000 -18.17489869 -0.00000000 
      172   1    1.51457989 -16.66029880  1.51119989 
      173   1    4.54371967 -22.71849836 -1.51118989 
      174   2    3.02914978 -21.20399847 -0.00000000 
      175   1    4.54371967 -19.68949858  1.51119989 
      176   1    7.57285945 -25.74429814 -1.51123989 
      177   2    6.05829956 -24.23229825 -0.00000000 
      178   1    7.57287945 -22.71849836  1.51118989 
      179   1    10.60199923 -28.76809792 -1.51126989 
      180   2    9.08744934 -27.25629803  0.00000000 
      181   1    10.60199923 -25.74429814  1.51123989 
      182   2    12.11659912 -30.27959781 -0.00000000 
      183   1    13.63119902 -28.76809792  1.51126989 
      184   1   -28.76809792  16.66029880 -1.51126989 
      185   2   -30.27959781  18.17489869  0.00000007 
      186   1   -28.76809792  19.68949858  1.51126989 
      187   1   -25.74429814  13.63119902 -1.51123989 
      188   2   -27.25629803  15.14569891 -0.00000000 
      189   1   -25.74429814  16.66029880  1.51123989 
      190   1   -22.71849836  10.60199923 -1.51118989 
      191   2   -24.23229825  12.11659912 -0.00000000 
      192   1   -22.71849836  13.63119902  1.51118989 
      193   1   -19.68949858  7.57287945 -1.51119989 
      194   2   -21.20399847  9.08744934  0.00000000 
      195   1   -19.68949858  10.60199923  1.51119989 
      196   1   -16.66029880  4.54371967 -1.51119989 
      197   2   -18.17489869  6.05829956  0.00000000 
      198   1   -16.66029880  7.57287945  1.51119989 
      199   1   -13.63119902  1.51456989 -1.51119989 
      200   2   -15.14569891  3.02914978  0.00000000 
      201   1   -13.63119902  4.54372967  1.51119989 
      202   1   -10.60199923 -1.51457989 -1.51119989 
      203   2   -12.11659912  0.00000000 -0.00000000 
      204   1   -10.60199923  1.51457989  1.51119989 
      205   1   -7.57286945 -4.54372967 -1.51119989 
      206   2   -9.08744934 -3.02914978  0.00000000 
      207   1   -7.57286945 -1.51457989  1.51119989 
      208   1   -4.54372967 -7.57287945 -1.51119989 
      209   2   -6.05829956 -6.05829956 -0.00000000 
      210   1   -4.54372967 -4.54372967  1.51119989 
      211   1   -1.51457989 -10.60199923 -1.51119989 
      212   2   -3.02914978 -9.08744934  0.00000000 
      213   1   -1.51457989 -7.57286945  1.51119989 
      214   1    1.51456989 -13.63119902 -1.51119989 
      215   2   -0.00000000 -12.11659912 -0.00000000 
      216   1    1.51457989 -10.60199923  1.51119989 
      217   1    4.54371967 -16.66029880 -1.51119989 
      218   2    3.02914978 -15.14569891  0.00000000 
      219   1    4.54372967 -13.63119902  1.51119989 
      220   1    7.57287945 -19.68949858 -1.51119989 
      221   2    6.05829956 -18.17489869  0.00000000 
      222   1    7.57287945 -16.66029880  1.51119989 
      223   1    10.60199923 -22.71849836 -1.51118989 
      224   2    9.08744934 -21.20399847  0.00000000 
      225   1    10.60199923 -19.68949858  1.51119989 
      226   1    13.63119902 -25.74429814 -1.51123989 
      227   2    12.11659912 -24.23229825 -0.00000000 
      228   1    13.63119902 -22.71849836  1.51118989 
      229   1    16.66029880 -28.76809792 -1.51126989 
      230   2    15.14569891 -27.25629803 -0.00000000 
      231   1    16.66029880 -25.74429814  1.51123989 
      232   2    18.17489869 -30.27959781  0.00000007 
      233   1    19.68949858 -28.76809792  1.51126989 
      234   1   -28.76819792  22.71839836 -1.51126989 
      235   2   -30.27949781  24.23219825  0.00000981 
      236   1   -28.76819792  25.74439814  1.51133989 
      237   1   -25.74429814  19.68949858 -1.51123989 
      238   2   -27.25629803  21.20399847 -0.00000111 
      239   1   -25.74429814  22.71849836  1.51122989 
      240   1   -22.71849836  16.66029880 -1.51118989 
      241   2   -24.23229825  18.17489869 -0.00000002 
      242   1   -22.71849836  19.68949858  1.51118989 
      243   1   -19.68949858  13.63119902 -1.51119989 
      244   2   -21.20399847  15.14569891 -0.00000000 
      245   1   -19.68949858  16.66029880  1.51119989 
      246   1   -16.66029880  10.60199923 -1.51119989 
      247   2   -18.17489869  12.11659912 -0.00000000 
      248   1   -16.66029880  13.63119902  1.51119989 
      249   1   -13.63119902  7.57286945 -1.51119989 
      250   2   -15.14569891  9.08744934  0.00000000 
      251   1   -13.63119902  10.60199923  1.51119989 
      252   1   -10.60199923  4.54371967 -1.51119989 
      253   2   -12.11659912  6.05829956  0.00000000 
      254   1   -10.60199923  7.57286945  1.51119989 
      255   1   -7.57286945  1.51457989 -1.51119989 
      256   2   -9.08744934  3.02914978  0.00000000 
      257   1   -7.57286945  4.54372967  1.51119989 
      258   1   -4.54372967 -1.51457989 -1.51119989 
      259   2   -6.05829956  0.00000000 -0.00000000 
      260   1   -4.54372967  1.51457989  1.51119989 
      261   1   -1.51457989 -4.54372967 -1.51119989 
      262   2   -3.02914978 -3.02914978  0.00000000 
      263   1   -1.51457989 -1.51457989  1.51119989 
      264   1    1.51457989 -7.57286945 -1.51119989 
      265   2    0.00000000 -6.05829956  0.00000000 
      266   1    1.51457989 -4.54372967  1.51119989 
      267   1    4.54372967 -10.60199923 -1.51119989 
      268   2    3.02914978 -9.08744934  0.00000000 
      269   1    4.54372967 -7.57286945  1.51119989 
      270   1    7.57286945 -13.63119902 -1.51119989 
      271   2    6.05829956 -12.11659912  0.00000000 
      272   1    7.57286945 -10.60199923  1.51119989 
      273   1    10.60199923 -16.66029880 -1.51119989 
      274   2    9.08744934 -15.14569891 -0.00000000 
      275   1    10.60199923 -13.63119902  1.51119989 
      276   1    13.63119902 -19.68949858 -1.51119989 
      277   2    12.11659912 -18.17489869 -0.00000000 
      278   1    13.63119902 -16.66029880  1.51119989 
      279   1    16.66029880 -22.71849836 -1.51118989 
      280   2    15.14569891 -21.20399847 -0.00000000 
      281   1    16.66029880 -19.68949858  1.51119989 
      282   1    19.68949858 -25.74429814 -1.51123989 
      283   2    18.17489869 -24.23229825 -0.00000002 
      284   1    19.68949858 -22.71849836  1.51118989 
      285   1    22.71839836 -28.76819792 -1.51126989 
      286   2    21.20399847 -27.25629803 -0.00000111 
      287   1    22.71849836 -25.74429814  1.51122989 
      288   2    24.23219825 -30.27949781  0.00000981 
      289   1    25.74439814 -28.76819792  1.51133989 
      290   1   -28.76829792  28.76829792 -1.51116989 
      291   1   -25.74429814  25.74429814 -1.51126989 
      292   2   -27.25629803  27.25629803 -0.00001133 
      293   1   -25.74439814  28.76819792  1.51133989 
      294   1   -22.71849836  22.71849836 -1.51118989 
      295   2   -24.23229825  24.23229825  0.00000664 
      296   1   -22.71849836  25.74429814  1.51122989 
      297   1   -19.68949858  19.68949858 -1.51119989 
      298   2   -21.20399847  21.20399847  0.00000051 
      299   1   -19.68949858  22.71849836  1.51118989 
      300   1   -16.66029880  16.66029880 -1.51119989 
      301   2   -18.17489869  18.17489869 -0.00000001 
      302   1   -16.66029880  19.68949858  1.51119989 
      303   1   -13.63119902  13.63119902 -1.51119989 
      304   2   -15.14569891  15.14569891 -0.00000000 
      305   1   -13.63119902  16.66029880  1.51119989 
      306   1   -10.60199923  10.60199923 -1.51119989 
      307   2   -12.11659912  12.11659912 -0.00000000 
      308   1   -10.60199923  13.63119902  1.51119989 
      309   1   -7.57287945  7.57287945 -1.51119989 
      310   2   -9.08744934  9.08744934 -0.00000000 
      311   1   -7.57287945  10.60199923  1.51119989 
      312   1   -4.54371967  4.54372967 -1.51119989 
      313   2   -6.05829956  6.05829956  0.00000000 
      314   1   -4.54372967  7.57286945  1.51119989 
      315   1   -1.51456989  1.51457989 -1.51119989 
      316   2   -3.02914978  3.02914978 -0.00000000 
      317   1   -1.51457989  4.54372967  1.51119989 
      318   1    1.51457989 -1.51457989 -1.51119989 
      319   2   -0.00000000  0.00000000 -0.00000000 
      320   1    1.51457989  1.51456989  1.51119989 
      321   1    4.54372967 -4.54372967 -1.51119989 
      322   2    3.02914978 -3.02914978 -0.00000000 
      323   1    4.54372967 -1.51457989  1.51119989 
      324   1    7.57287945 -7.57287945 -1.51119989 
      325   2    6.05829956 -6.05829956  0.00000000 
      326   1    7.57287945 -4.54372967  1.51119989 
      327   1    10.60199923 -10.60199923 -1.51119989 
      328   2    9.08744934 -9.08744934  0.00000000 
      329   1    10.60199923 -7.57286945  1.51119989 
      330   1    13.63119902 -13.63119902 -1.51119989 
      331   2    12.11659912 -12.11659912 -0.00000000 
      332   1    13.63119902 -10.60199923  1.51119989 
      333   1    16.66029880 -16.66029880 -1.51119989 
      334   2    15.14569891 -15.14569891 -0.00000000 
      335   1    16.66029880 -13.63119902  1.51119989 
      336   1    19.68949858 -19.68949858 -1.51119989 
      337   2    18.17489869 -18.17489869 -0.00000001 
      338   1    19.68949858 -16.66029880  1.51119989 
      339   1    22.71849836 -22.71849836 -1.51118989 
      340   2    21.20399847 -21.20399847  0.00000051 
      341   1    22.71849836 -19.68949858  1.51118989 
      342   1    25.74429814 -25.74429814 -1.51126989 
      343   2    24.23229825 -24.23229825  0.00000664 
      344   1    25.74429814 -22.71849836  1.51122989 
      345   1    28.76829792 -28.76829792 -1.51116989 
      346   2    27.25629803 -27.25629803 -0.00001133 
      347   1    28.76819792 -25.74439814  1.51133989 
      348   1   -22.71839836  28.76819792 -1.51126989 
      349   2   -24.23219825  30.27949781  0.00000981 
      350   1   -19.68949858  25.74429814 -1.51123989 
      351   2   -21.20399847  27.25629803 -0.00000111 
      352   1   -19.68949858  28.76809792  1.51126989 
      353   1   -16.66029880  22.71849836 -1.51118989 
      354   2   -18.17489869  24.23229825 -0.00000002 
      355   1   -16.66029880  25.74429814  1.51123989 
      356   1   -13.63119902  19.68949858 -1.51119989 
      357   2   -15.14569891  21.20399847 -0.00000000 
      358   1   -13.63119902  22.71849836  1.51118989 
      359   1   -10.60199923  16.66029880 -1.51119989 
      360   2   -12.11659912  18.17489869 -0.00000000 
      361   1   -10.60199923  19.68949858  1.51119989 
      362   1   -7.57286945  13.63119902 -1.51119989 
      363   2   -9.08744934  15.14569891  0.00000000 
      364   1   -7.57287945  16.66029880  1.51119989 
      365   1   -4.54372967  10.60199923 -1.51119989 
      366   2   -6.05829956  12.11659912  0.00000000 
      367   1   -4.54372967  13.63119902  1.51119989 
      368   1   -1.51457989  7.57286945 -1.51119989 
      369   2   -3.02914978  9.08744934 -0.00000000 
      370   1   -1.51456989  10.60199923  1.51119989 
      371   1    1.51457989  4.54372967 -1.51119989 
      372   2    0.00000000  6.05829956 -0.00000000 
      373   1    1.51457989  7.57287945  1.51119989 
      374   1    4.54372967  1.51457989 -1.51119989 
      375   2    3.02914978  3.02914978  0.00000000 
      376   1    4.54372967  4.54372967  1.51119989 
      377   1    7.57286945 -1.51457989 -1.51119989 
      378   2    6.05829956  0.00000000 -0.00000000 
      379   1    7.57287945  1.51457989  1.51119989 
      380   1    10.60199923 -4.54372967 -1.51119989 
      381   2    9.08744934 -3.02914978  0.00000000 
      382   1    10.60199923 -1.51457989  1.51119989 
      383   1    13.63119902 -7.57286945 -1.51119989 
      384   2    12.11659912 -6.05829956  0.00000000 
      385   1    13.63119902 -4.54372967  1.51119989 
      386   1    16.66029880 -10.60199923 -1.51119989 
      387   2    15.14569891 -9.08744934 -0.00000000 
      388   1    16.66029880 -7.57287945  1.51119989 
      389   1    19.68949858 -13.63119902 -1.51119989 
      390   2    18.17489869 -12.11659912 -0.00000000 
      391   1    19.68949858 -10.60199923  1.51119989 
      392   1    22.71849836 -16.66029880 -1.51118989 
      393   2    21.20399847 -15.14569891 -0.00000000 
      394   1    22.71849836 -13.63119902  1.51118989 
      395   1    25.74429814 -19.68949858 -1.51123989 
      396   2    24.23229825 -18.17489869 -0.00000002 
      397   1    25.74429814 -16.66029880  1.51123989 
      398   1    28.76819792 -22.71839836 -1.51126989 
      399   2    27.25629803 -21.20399847 -0.00000111 
      400   1    28.76809792 -19.68949858  1.51126989 
      401   2    30.27949781 -24.23219825  0.00000981 
      402   1   -16.66029880  28.76809792 -1.51126989 
      403   2   -18.17489869  30.27959781  0.00000007 
      404   1   -13.63119902  25.74429814 -1.51123989 
      405   2   -15.14569891  27.25629803 -0.00000000 
      406   1   -13.63119902  28.76809792  1.51126989 
      407   1   -10.60199923  22.71849836 -1.51118989 
      408   2   -12.11659912  24.23229825 -0.00000000 
      409   1   -10.60199923  25.74429814  1.51123989 
      410   1   -7.57287945  19.68949858 -1.51119989 
      411   2   -9.08744934  21.20399847  0.00000000 
      412   1   -7.57287945  22.71849836  1.51118989 
      413   1   -4.54371967  16.66029880 -1.51119989 
      414   2   -6.05829956  18.17489869  0.00000000 
      415   1   -4.54371967  19.68949858  1.51119989 
      416   1   -1.51456989  13.63119902 -1.51119989 
      417   2   -3.02914978  15.14569891  0.00000000 
      418   1   -1.51457989  16.66029880  1.51119989 
      419   1    1.51457989  10.60199923 -1.51119989 
      420   2   -0.00000000  12.11659912 -0.00000000 
      421   1    1.51456989  13.63119902  1.51119989 
      422   1    4.54372967  7.57286945 -1.51119989 
      423   2    3.02914978  9.08744934 -0.00000000 
      424   1    4.54372967  10.60199923  1.51119989 
      425   1    7.57287945  4.54371967 -1.51119989 
      426   2    6.05829956  6.05829956 -0.00000000 
      427   1    7.57286945  7.57287945  1.51119989 
      428   1    10.60199923  1.51457989 -1.51119989 
      429   2    9.08744934  3.02914978  0.00000000 
      430   1    10.60199923  4.54372967  1.51119989 
      431   1    13.63119902 -1.51456989 -1.51119989 
      432   2    12.11659912  0.00000000  0.00000000 
      433   1    13.63119902  1.51456989  1.51119989 
      434   1    16.66029880 -4.54371967 -1.51119989 
      435   2    15.14569891 -3.02914978  0.00000000 
      436   1    16.66029880 -1.51457989  1.51119989 
      437   1    19.68949858 -7.57287945 -1.51119989 
      438   2    18.17489869 -6.05829956  0.00000000 
      439   1    19.68949858 -4.54371967  1.51119989 
      440   1    22.71849836 -10.60199923 -1.51118989 
      441   2    21.20399847 -9.08744934  0.00000000 
      442   1    22.71849836 -7.57287945  1.51118989 
      443   1    25.74429814 -13.63119902 -1.51123989 
      444   2    24.23229825 -12.11659912 -0.00000000 
      445   1    25.74429814 -10.60199923  1.51123989 
      446   1    28.76809792 -16.66029880 -1.51126989 
      447   2    27.25629803 -15.14569891 -0.00000000 
      448   1    28.76809792 -13.63119902  1.51126989 
      449   2    30.27959781 -18.17489869  0.00000007 
      450   1   -10.60199923  28.76809792 -1.51126989 
      451   2   -12.11659912  30.27959781 -0.00000000 
      452   1   -7.57285945  25.74429814 -1.51123989 
      453   2   -9.08744934  27.25629803 -0.00000000 
      454   1   -7.57289945  28.76809792  1.51126989 
      455   1   -4.54371967  22.71849836 -1.51118989 
      456   2   -6.05829956  24.23229825 -0.00000000 
      457   1   -4.54373967  25.74429814  1.51123989 
      458   1   -1.51457989  19.68949858 -1.51119989 
      459   2   -3.02914978  21.20399847 -0.00000000 
      460   1   -1.51457989  22.71849836  1.51118989 
      461   1    1.51457989  16.66029880 -1.51119989 
      462   2    0.00000000  18.17489869 -0.00000000 
      463   1    1.51457989  19.68949858  1.51119989 
      464   1    4.54372967  13.63119902 -1.51119989 
      465   2    3.02914978  15.14569891 -0.00000000 
      466   1    4.54371967  16.66029880  1.51119989 
      467   1    7.57286945  10.60199923 -1.51119989 
      468   2    6.05829956  12.11659912 -0.00000000 
      469   1    7.57286945  13.63119902  1.51119989 
      470   1    10.60199923  7.57287945 -1.51119989 
      471   2    9.08744934  9.08744934 -0.00000000 
      472   1    10.60199923  10.60199923  1.51119989 
      473   1    13.63119902  4.54372967 -1.51119989 
      474   2    12.11659912  6.05829956 -0.00000000 
      475   1    13.63119902  7.57286945  1.51119989 
      476   1    16.66029880  1.51457989 -1.51119989 
      477   2    15.14569891  3.02914978 -0.00000000 
      478   1    16.66029880  4.54371967  1.51119989 
      479   1    19.68949858 -1.51457989 -1.51119989 
      480   2    18.17489869  0.00000000 -0.00000000 
      481   1    19.68949858  1.51457989  1.51119989 
      482   1    22.71849836 -4.54371967 -1.51118989 
      483   2    21.20399847 -3.02914978 -0.00000000 
      484   1    22.71849836 -1.51457989  1.51118989 
      485   1    25.74429814 -7.57285945 -1.51123989 
      486   2    24.23229825 -6.05829956 -0.00000000 
      487   1    25.74429814 -4.54373967  1.51123989 
      488   1    28.76809792 -10.60199923 -1.51126989 
      489   2    27.25629803 -9.08744934 -0.00000000 
      490   1    28.76809792 -7.57289945  1.51126989 
      491   2    30.27959781 -12.11659912 -0.00000000 
      492   1   -4.54369967  28.76809792 -1.51126989 
      493   2   -6.05829956  30.27959781  0.00000000 
      494   1   -1.51455989  25.74429814 -1.51123989 
      495   2   -3.02914978  27.25629803 -0.00000000 
      496   1   -1.51459989  28.76809792  1.51126989 
      497   1    1.51457989  22.71849836 -1.51118989 
      498   2    0.00000000  24.23229825 -0.00000000 
      499   1    1.51455989  25.74429814  1.51123989 
      500   1    4.54371967  19.68949858 -1.51119989 
      501   2    3.02914978  21.20399847  0.00000000 
      502   1    4.54371967  22.71849836  1.51118989 
      503   1    7.57287945  16.66029880 -1.51119989 
      504   2    6.05829956  18.17489869 -0.00000000 
      505   1    7.57287945  19.68949858  1.51119989 
      506   1    10.60199923  13.63119902 -1.51119989 
      507   2    9.08744934  15.14569891 -0.00000000 
      508   1    10.60199923  16.66029880  1.51119989 
      509   1    13.63119902  10.60199923 -1.51119989 
      510   2    12.11659912  12.11659912  0.00000000 
      511   1    13.63119902  13.63119902  1.51119989 
      512   1    16.66029880  7.57287945 -1.51119989 
      513   2    15.14569891  9.08744934 -0.00000000 
      514   1    16.66029880  10.60199923  1.51119989 
      515   1    19.68949858  4.54371967 -1.51119989 
      516   2    18.17489869  6.05829956 -0.00000000 
      517   1    19.68949858  7.57287945  1.51119989 
      518   1    22.71849836  1.51457989 -1.51118989 
      519   2    21.20399847  3.02914978  0.00000000 
      520   1    22.71849836  4.54371967  1.51118989 
      521   1    25.74429814 -1.51455989 -1.51123989 
      522   2    24.23229825 -0.00000000  0.00000000 
      523   1    25.74429814  1.51455989  1.51123989 
      524   1    28.76809792 -4.54369967 -1.51126989 
      525   2    27.25629803 -3.02914978 -0.00000000 
      526   1    28.76809792 -1.51459989  1.51126989 
      527   2    30.27959781 -6.05829956 -0.00000000 
      528   1    1.51459989  28.76809792 -1.51126989 
      529   2   -0.00000000  30.27959781  0.00000000 
      530   1    4.54373967  25.74429814 -1.51123989 
      531   2    3.02914978  27.25629803  0.00000000 
      532   1    4.54369967  28.76809792  1.51126989 
      533   1    7.57287945  22.71849836 -1.51118989 
      534   2    6.05829956  24.23229825  0.00000000 
      535   1    7.57285945  25.74429814  1.51123989 
      536   1    10.60199923  19.68949858 -1.51119989 
      537   2    9.08744934  21.20399847 -0.00000000 
      538   1    10.60199923  22.71849836  1.51118989 
      539   1    13.63119902  16.66029880 -1.51119989 
      540   2    12.11659912  18.17489869  0.00000000 
      541   1    13.63119902  19.68949858  1.51119989 
      542   1    16.66029880  13.63119902 -1.51119989 
      543   2    15.14569891  15.14569891  0.00000000 
      544   1    16.66029880  16.66029880  1.51119989 
      545   1    19.68949858  10.60199923 -1.51119989 
      546   2    18.17489869  12.11659912  0.00000000 
      547   1    19.68949858  13.63119902  1.51119989 
      548   1    22.71849836  7.57287945 -1.51118989 