LAMMPS configuration data file

  693 atoms

  4 atom types

  -49.660098  49.660098  xlo xhi
  -49.660098  49.660098  ylo yhi
  -21.537170  21.537170  zlo zhi

 Masses

  1   78.960
  2   112.411
  3   1.000
  4   1.000

 Atoms

        1   1   -28.12239797 -28.12239797  1.53327989 
        2   1   -28.13039797 -25.14299818 -1.51532989 
        3   2   -29.63489786 -23.65699829  0.00458397 
        4   1   -28.13629797 -22.17209840  1.52760989 
        5   1   -25.14299818 -28.13039797 -1.51532989 
        6   2   -26.63659808 -26.63659808  0.00437245 
        7   1   -25.14639819 -25.14639819  1.52688989 
        8   2   -23.65699829 -29.63489786  0.00458397 
        9   1   -22.17209840 -28.13629797  1.52760989 
       10   1   -28.14229797 -19.20559862 -1.52263989 
       11   2   -29.64869786 -17.72669872 -0.00021577 
       12   1   -28.14819797 -16.24779883  1.52548989 
       13   1   -25.15089819 -22.17329840 -1.52266989 
       14   2   -26.64799807 -20.69029851 -0.00007095 
       15   1   -25.15649818 -19.20789862  1.52536989 
       16   1   -22.17329840 -25.15089819 -1.52266989 
       17   2   -23.66259829 -23.66259829 -0.00071231 
       18   1   -22.17699840 -22.17699840  1.52544989 
       19   1   -19.20559862 -28.14229797 -1.52263989 
       20   2   -20.69029851 -26.64799807 -0.00007095 
       21   1   -19.20789862 -25.15649818  1.52536989 
       22   2   -17.72669872 -29.64869786 -0.00021577 
       23   1   -16.24779883 -28.14819797  1.52548989 
       24   1   -28.15099797 -13.28929904 -1.52779989 
       25   2   -29.65629786 -11.81319915 -0.00245236 
       26   1   -28.15429797 -10.33799925  1.52578989 
       27   1   -25.15989818 -16.24709883 -1.52810989 
       28   2   -26.65769808 -14.77019894 -0.00278098 
       29   1   -25.16479818 -13.29269904  1.52553989 
       30   1   -22.17899840 -19.20829862 -1.52861989 
       31   2   -23.67049829 -17.72839872 -0.00300570 
       32   1   -22.18379840 -16.24909883  1.52585989 
       33   1   -19.20829862 -22.17899840 -1.52861989 
       34   2   -20.69449851 -20.69449851 -0.00325464 
       35   1   -19.21189861 -19.21189861  1.52535989 
       36   1   -16.24709883 -25.15989818 -1.52810989 
       37   2   -17.72839872 -23.67049829 -0.00300570 
       38   1   -16.24909883 -22.18379840  1.52585989 
       39   1   -13.28929904 -28.15099797 -1.52779989 
       40   2   -14.77019894 -26.65769808 -0.00278098 
       41   1   -13.29269904 -25.16479818  1.52553989 
       42   2   -11.81319915 -29.65629786 -0.00245236 
       43   1   -10.33799925 -28.15429797  1.52578989 
       44   1   -28.15619797 -7.38057947 -1.52833989 
       45   2   -29.65949786 -5.90421958 -0.00122030 
       46   1   -28.15539797 -4.43016968  1.52713989 
       47   1   -25.16649818 -10.33689925 -1.52900989 
       48   2   -26.66289807 -8.86049936 -0.00206845 
       49   1   -25.16799818 -7.38466947  1.52665989 
       50   1   -22.18499840 -13.29169904 -1.53176989 
       51   2   -23.67709829 -11.81639915 -0.00330903 
       52   1   -22.18889840 -10.34049925  1.52706989 
       53   1   -19.21219861 -16.24849883 -1.53346989 
       54   2   -20.69959850 -14.77199893 -0.00420447 
       55   1   -19.21679861 -13.29429904  1.52731989 
       56   1   -16.24849883 -19.21219861 -1.53346989 
       57   2   -17.73149872 -17.73149872 -0.00482125 
       58   1   -16.25199883 -16.25199883  1.52744989 
       59   1   -13.29169904 -22.18499840 -1.53176989 
       60   2   -14.77199893 -20.69959850 -0.00420447 
       61   1   -13.29429904 -19.21679861  1.52731989 
       62   1   -10.33689925 -25.16649818 -1.52900989 
       63   2   -11.81639915 -23.67709829 -0.00330903 
       64   1   -10.34049925 -22.18889840  1.52706989 
       65   1   -7.38057947 -28.15619797 -1.52833989 
       66   2   -8.86049936 -26.66289807 -0.00206845 
       67   1   -7.38466947 -25.16799818  1.52665989 
       68   2   -5.90421958 -29.65949786 -0.00122030 
       69   1   -4.43016968 -28.15539797  1.52713989 
       70   1   -28.15629797 -1.47411989 -1.52863989 
       71   2   -29.66009786 -0.00000000 -0.00000000 
       72   1   -28.15629797  1.47411989  1.52863989 
       73   1   -25.16999818 -4.42826968 -1.52889989 
       74   2   -26.66479807 -2.95236979 -0.00071445 
       75   1   -25.16859819 -1.47823990  1.52838989 
       76   1   -22.19119840 -7.38336947 -1.53132989 
       77   2   -23.68089829 -5.90708957 -0.00178475 
       78   1   -22.19019840 -4.43204968  1.52844989 
       79   1   -19.21809861 -10.33879925 -1.53363989 
       80   2   -20.70499850 -8.86299936 -0.00325629 
       81   1   -19.21949861 -7.38683947  1.52814989 
       82   1   -16.25179883 -13.29309904 -1.53642989 
       83   2   -17.73569872 -11.81809915 -0.00466788 
       84   1   -16.25519883 -10.34169926  1.52800989 
       85   1   -13.29309904 -16.25179883 -1.53642989 
       86   2   -14.77429893 -14.77429893 -0.00539496 
       87   1   -13.29669904 -13.29669904  1.52842989 
       88   1   -10.33879925 -19.21809861 -1.53363989 
       89   2   -11.81809915 -17.73569872 -0.00466788 
       90   1   -10.34169926 -16.25519883  1.52800989 
       91   1   -7.38336947 -22.19119840 -1.53132989 
       92   2   -8.86299936 -20.70499850 -0.00325629 
       93   1   -7.38683947 -19.21949861  1.52814989 
       94   1   -4.42826968 -25.16999818 -1.52889989 
       95   2   -5.90708957 -23.68089829 -0.00178475 
       96   1   -4.43204968 -22.19019840  1.52844989 
       97   1   -1.47411989 -28.15629797 -1.52863989 
       98   2   -2.95236979 -26.66479807 -0.00071445 
       99   1   -1.47823990 -25.16859819  1.52838989 
      100   2   -0.00000000 -29.66009786 -0.00000000 
      101   1    1.47411989 -28.15629797  1.52863989 
      102   1   -28.15539797  4.43016968 -1.52713989 
      103   2   -29.65949786  5.90421958  0.00122029 
      104   1   -28.15619797  7.38057947  1.52833989 
      105   1   -25.16859819  1.47823990 -1.52838989 
      106   2   -26.66479807  2.95236979  0.00071444 
      107   1   -25.16999818  4.42826968  1.52889989 
      108   1   -22.19169840 -1.47552989 -1.53056989 
      109   2   -23.68129829 -0.00000000 -0.00000000 
      110   1   -22.19169840  1.47552989  1.53056989 
      111   1   -19.22239861 -4.43005968 -1.53285989 
      112   2   -20.70699851 -2.95402979 -0.00110222 
      113   1   -19.22139861 -1.47906989  1.53152989 
      114   1   -16.25699883 -7.38449947 -1.53539989 
      115   2   -17.73919872 -5.90874958 -0.00291350 
      116   1   -16.25669883 -4.43291968  1.53044989 
      117   1   -13.29679904 -10.33999925 -1.53716989 
      118   2   -14.77759893 -8.86395936 -0.00448027 
      119   1   -13.29809904 -7.38710947  1.52926989 
      120   1   -10.33999925 -13.29679904 -1.53716989 
      121   2   -11.81989915 -11.81989915 -0.00523546 
      122   1   -10.34249926 -10.34249926  1.52814989 
      123   1   -7.38449947 -16.25699883 -1.53539989 
      124   2   -8.86395936 -14.77759893 -0.00448027 
      125   1   -7.38710947 -13.29809904  1.52926989 
      126   1   -4.43005968 -19.22239861 -1.53285989 
      127   2   -5.90874958 -17.73919872 -0.00291350 
      128   1   -4.43291968 -16.25669883  1.53044989 
      129   1   -1.47552989 -22.19169840 -1.53056989 
      130   2   -2.95402979 -20.70699851 -0.00110222 
      131   1   -1.47906989 -19.22139861  1.53152989 
      132   1    1.47823990 -25.16859819 -1.52838989 
      133   2   -0.00000000 -23.68129829 -0.00000000 
      134   1    1.47552989 -22.19169840  1.53056989 
      135   1    4.43016968 -28.15539797 -1.52713989 
      136   2    2.95236979 -26.66479807  0.00071444 
      137   1    4.42826968 -25.16999818  1.52889989 
      138   2    5.90421958 -29.65949786  0.00122029 
      139   1    7.38057947 -28.15619797  1.52833989 
      140   1   -28.15429797  10.33799925 -1.52578989 
      141   2   -29.65629786  11.81319915  0.00245235 
      142   1   -28.15099797  13.28929904  1.52779989 
      143   1   -25.16799818  7.38466947 -1.52665989 
      144   2   -26.66289807  8.86049936  0.00206845 
      145   1   -25.16649818  10.33689925  1.52900989 
      146   1   -22.19019840  4.43204968 -1.52844989 
      147   2   -23.68089829  5.90708957  0.00178475 
      148   1   -22.19119840  7.38336947  1.53132989 
      149   1   -19.22139861  1.47906989 -1.53152989 
      150   2   -20.70699851  2.95402979  0.00110222 
      151   1   -19.22239861  4.43005968  1.53285989 
      152   1   -16.25939883 -1.47559989 -1.53448989 
      153   2   -17.74089872 -0.00000000 -0.00000000 
      154   1   -16.25939883  1.47559989  1.53448989 
      155   1   -13.30119904 -4.42897968 -1.53593989 
      156   2   -14.78079893 -2.95359979 -0.00194274 
      157   1   -13.30109904 -1.47880989  1.53345989 
      158   1   -10.34369925 -7.38542947 -1.53658989 
      159   2   -11.82279915 -5.90826958 -0.00390051 
      160   1   -10.34419925 -4.43174968  1.53027989 
      161   1   -7.38542947 -10.34369925 -1.53658989 
      162   2   -8.86534936 -8.86534936 -0.00486255 
      163   1   -7.38726946 -7.38726946  1.52907989 
      164   1   -4.42897968 -13.30119904 -1.53593989 
      165   2   -5.90826958 -11.82279915 -0.00390051 
      166   1   -4.43174968 -10.34419925  1.53027989 
      167   1   -1.47559989 -16.25939883 -1.53448989 
      168   2   -2.95359979 -14.78079893 -0.00194274 
      169   1   -1.47880989 -13.30109904  1.53345989 
      170   1    1.47906989 -19.22139861 -1.53152989 
      171   2   -0.00000000 -17.74089872 -0.00000000 
      172   1    1.47559989 -16.25939883  1.53448989 
      173   1    4.43204968 -22.19019840 -1.52844989 
      174   2    2.95402979 -20.70699851  0.00110222 
      175   1    4.43005968 -19.22239861  1.53285989 
      176   1    7.38466947 -25.16799818 -1.52665989 
      177   2    5.90708957 -23.68089829  0.00178475 
      178   1    7.38336947 -22.19119840  1.53132989 
      179   1    10.33799925 -28.15429797 -1.52578989 
      180   2    8.86049936 -26.66289807  0.00206845 
      181   1    10.33689925 -25.16649818  1.52900989 
      182   2    11.81319915 -29.65629786  0.00245235 
      183   1    13.28929904 -28.15099797  1.52779989 
      184   1   -28.14819797  16.24779883 -1.52548989 
      185   2   -29.64869786  17.72669872  0.00021577 
      186   1   -28.14229797  19.20559862  1.52263989 
      187   1   -25.16479818  13.29269904 -1.52553989 
      188   2   -26.65769808  14.77019894  0.00278098 
      189   1   -25.15989818  16.24709883  1.52810989 
      190   1   -22.18889840  10.34049925 -1.52706989 
      191   2   -23.67709829  11.81639915  0.00330902 
      192   1   -22.18499840  13.29169904  1.53176989 
      193   1   -19.21949861  7.38683947 -1.52814989 
      194   2   -20.70499850  8.86299936  0.00325629 
      195   1   -19.21809861  10.33879925  1.53363989 
      196   1   -16.25669883  4.43291968 -1.53044989 
      197   2   -17.73919872  5.90874958  0.00291350 
      198   1   -16.25699883  7.38449947  1.53539989 
      199   1   -13.30109904  1.47880989 -1.53345989 
      200   2   -14.78079893  2.95359979  0.00194274 
      201   1   -13.30119904  4.42897968  1.53593989 
      202   1   -10.34619925 -1.47585989 -1.53502989 
      203   2   -11.82469915 -0.00000000 -0.00000000 
      204   1   -10.34619925  1.47585989  1.53502989 
      205   1   -7.38918947 -4.43167968 -1.53560989 
      206   2   -8.86783936 -2.95396979 -0.00269296 
      207   1   -7.38961947 -1.47769989  1.53272989 
      208   1   -4.43167968 -7.38918947 -1.53560989 
      209   2   -5.91022957 -5.91022957 -0.00398267 
      210   1   -4.43264968 -4.43264968  1.53091989 
      211   1   -1.47585989 -10.34619925 -1.53502989 
      212   2   -2.95396979 -8.86783936 -0.00269296 
      213   1   -1.47769989 -7.38961947  1.53272989 
      214   1    1.47880989 -13.30109904 -1.53345989 
      215   2   -0.00000000 -11.82469915 -0.00000000 
      216   1    1.47585989 -10.34619925  1.53502989 
      217   1    4.43291968 -16.25669883 -1.53044989 
      218   2    2.95359979 -14.78079893  0.00194274 
      219   1    4.42897968 -13.30119904  1.53593989 
      220   1    7.38683947 -19.21949861 -1.52814989 
      221   2    5.90874958 -17.73919872  0.00291350 
      222   1    7.38449947 -16.25699883  1.53539989 
      223   1    10.34049925 -22.18889840 -1.52706989 
      224   2    8.86299936 -20.70499850  0.00325629 
      225   1    10.33879925 -19.21809861  1.53363989 
      226   1    13.29269904 -25.16479818 -1.52553989 
      227   2    11.81639915 -23.67709829  0.00330902 
      228   1    13.29169904 -22.18499840  1.53176989 
      229   1    16.24779883 -28.14819797 -1.52548989 
      230   2    14.77019894 -26.65769808  0.00278098 
      231   1    16.24709883 -25.15989818  1.52810989 
      232   2    17.72669872 -29.64869786  0.00021577 
      233   1    19.20559862 -28.14229797  1.52263989 
      234   1   -28.13629797  22.17209840 -1.52760989 
      235   2   -29.63489786  23.65699829 -0.00458397 
      236   1   -28.13039797  25.14299818  1.51532989 
      237   1   -25.15649818  19.20789862 -1.52536989 
      238   2   -26.64799807  20.69029851  0.00007095 
      239   1   -25.15089819  22.17329840  1.52266989 
      240   1   -22.18379840  16.24909883 -1.52585989 
      241   2   -23.67049829  17.72839872  0.00300570 
      242   1   -22.17899840  19.20829862  1.52861989 
      243   1   -19.21679861  13.29429904 -1.52731989 
      244   2   -20.69959850  14.77199893  0.00420447 
      245   1   -19.21219861  16.24849883  1.53346989 
      246   1   -16.25519883  10.34169926 -1.52800989 
      247   2   -17.73569872  11.81809915  0.00466787 
      248   1   -16.25179883  13.29309904  1.53642989 
      249   1   -13.29809904  7.38710947 -1.52926989 
      250   2   -14.77759893  8.86395936  0.00448026 
      251   1   -13.29679904  10.33999925  1.53716989 
      252   1   -10.34419925  4.43174968 -1.53027989 
      253   2   -11.82279915  5.90826958  0.00390051 
      254   1   -10.34369925  7.38542947  1.53658989 
      255   1   -7.38961947  1.47769989 -1.53272989 
      256   2   -8.86783936  2.95396979  0.00269296 
      257   1   -7.38918947  4.43167968  1.53560989 
      258   1   -4.43356968 -1.47823990 -1.53423989 
      259   2   -5.91149957 -0.00000000 -0.00000000 
      260   1   -4.43356968  1.47823990  1.53423989 
      261   1   -1.47823990 -4.43356968 -1.53423989 
      262   2   -2.95526979 -2.95526979 -0.00112839 
      263   1   -1.47799989 -1.47799989  1.53373989 
      264   1    1.47769989 -7.38961947 -1.53272989 
      265   2   -0.00000000 -5.91149957 -0.00000000 
      266   1    1.47823990 -4.43356968  1.53423989 
      267   1    4.43174968 -10.34419925 -1.53027989 
      268   2    2.95396979 -8.86783936  0.00269296 
      269   1    4.43167968 -7.38918947  1.53560989 
      270   1    7.38710947 -13.29809904 -1.52926989 
      271   2    5.90826958 -11.82279915  0.00390051 
      272   1    7.38542947 -10.34369925  1.53658989 
      273   1    10.34169926 -16.25519883 -1.52800989 
      274   2    8.86395936 -14.77759893  0.00448027 
      275   1    10.33999925 -13.29679904  1.53716989 
      276   1    13.29429904 -19.21679861 -1.52731989 
      277   2    11.81809915 -17.73569872  0.00466787 
      278   1    13.29309904 -16.25179883  1.53642989 
      279   1    16.24909883 -22.18379840 -1.52585989 
      280   2    14.77199893 -20.69959850  0.00420447 
      281   1    16.24849883 -19.21219861  1.53346989 
      282   1    19.20789862 -25.15649818 -1.52536989 
      283   2    17.72839872 -23.67049829  0.00300570 
      284   1    19.20829862 -22.17899840  1.52861989 
      285   1    22.17209840 -28.13629797 -1.52760989 
      286   2    20.69029851 -26.64799807  0.00007095 
      287   1    22.17329840 -25.15089819  1.52266989 
      288   2    23.65699829 -29.63489786 -0.00458397 
      289   1    25.14299818 -28.13039797  1.51532989 
      290   1   -28.12239797  28.12239797 -1.53327989 
      291   1   -25.14639819  25.14639819 -1.52688989 
      292   2   -26.63659808  26.63659808 -0.00437245 
      293   1   -25.14299818  28.13039797  1.51532989 
      294   1   -22.17699840  22.17699840 -1.52544989 
      295   2   -23.66259829  23.66259829  0.00071231 
      296   1   -22.17329840  25.15089819  1.52266989 
      297   1   -19.21189861  19.21189861 -1.52535989 
      298   2   -20.69449851  20.69449851  0.00325464 
      299   1   -19.20829862  22.17899840  1.52861989 
      300   1   -16.25199883  16.25199883 -1.52744989 
      301   2   -17.73149872  17.73149872  0.00482125 
      302   1   -16.24849883  19.21219861  1.53346989 
      303   1   -13.29669904  13.29669904 -1.52842989 
      304   2   -14.77429893  14.77429893  0.00539495 
      305   1   -13.29309904  16.25179883  1.53642989 
      306   1   -10.34249926  10.34249926 -1.52814989 
      307   2   -11.81989915  11.81989915  0.00523546 
      308   1   -10.33999925  13.29679904  1.53716989 
      309   1   -7.38726946  7.38726946 -1.52907989 
      310   2   -8.86534936  8.86534936  0.00486255 
      311   1   -7.38542947  10.34369925  1.53658989 
      312   1   -4.43264968  4.43264968 -1.53091989 
      313   2   -5.91022957  5.91022957  0.00398267 
      314   1   -4.43167968  7.38918947  1.53560989 
      315   1   -1.47799989  1.47799989 -1.53373989 
      316   2   -2.95526979  2.95526979  0.00112839 
      317   1   -1.47823990  4.43356968  1.53423989 
      318   1    1.47799989 -1.47799989 -1.53373989 
      319   2   -0.00000000 -0.00000000  0.00000000 
      320   1    1.47799989  1.47799989  1.53373989 
      321   1    4.43264968 -4.43264968 -1.53091989 
      322   2    2.95526979 -2.95526979  0.00112839 
      323   1    4.43356968 -1.47823990  1.53423989 
      324   1    7.38726946 -7.38726946 -1.52907989 
      325   2    5.91022957 -5.91022957  0.00398267 
      326   1    7.38918947 -4.43167968  1.53560989 
      327   1    10.34249926 -10.34249926 -1.52814989 
      328   2    8.86534936 -8.86534936  0.00486255 
      329   1    10.34369925 -7.38542947  1.53658989 
      330   1    13.29669904 -13.29669904 -1.52842989 
      331   2    11.81989915 -11.81989915  0.00523546 
      332   1    13.29679904 -10.33999925  1.53716989 
      333   1    16.25199883 -16.25199883 -1.52744989 
      334   2    14.77429893 -14.77429893  0.00539495 
      335   1    16.25179883 -13.29309904  1.53642989 
      336   1    19.21189861 -19.21189861 -1.52535989 
      337   2    17.73149872 -17.73149872  0.00482125 
      338   1    19.21219861 -16.24849883  1.53346989 
      339   1    22.17699840 -22.17699840 -1.52544989 
      340   2    20.69449851 -20.69449851  0.00325464 
      341   1    22.17899840 -19.20829862  1.52861989 
      342   1    25.14639819 -25.14639819 -1.52688989 
      343   2    23.66259829 -23.66259829  0.00071231 
      344   1    25.15089819 -22.17329840  1.52266989 
      345   1    28.12239797 -28.12239797 -1.53327989 
      346   2    26.63659808 -26.63659808 -0.00437245 
      347   1    28.13039797 -25.14299818  1.51532989 
      348   1   -22.17209840  28.13629797 -1.52760989 
      349   2   -23.65699829  29.63489786 -0.00458397 
      350   1   -19.20789862  25.15649818 -1.52536989 
      351   2   -20.69029851  26.64799807  0.00007095 
      352   1   -19.20559862  28.14229797  1.52263989 
      353   1   -16.24909883  22.18379840 -1.52585989 
      354   2   -17.72839872  23.67049829  0.00300570 
      355   1   -16.24709883  25.15989818  1.52810989 
      356   1   -13.29429904  19.21679861 -1.52731989 
      357   2   -14.77199893  20.69959850  0.00420447 
      358   1   -13.29169904  22.18499840  1.53176989 
      359   1   -10.34169926  16.25519883 -1.52800989 
      360   2   -11.81809915  17.73569872  0.00466787 
      361   1   -10.33879925  19.21809861  1.53363989 
      362   1   -7.38710947  13.29809904 -1.52926989 
      363   2   -8.86395936  14.77759893  0.00448027 
      364   1   -7.38449947  16.25699883  1.53539989 
      365   1   -4.43174968  10.34419925 -1.53027989 
      366   2   -5.90826958  11.82279915  0.00390051 
      367   1   -4.42897968  13.30119904  1.53593989 
      368   1   -1.47769989  7.38961947 -1.53272989 
      369   2   -2.95396979  8.86783936  0.00269296 
      370   1   -1.47585989  10.34619925  1.53502989 
      371   1    1.47823990  4.43356968 -1.53423989 
      372   2   -0.00000000  5.91149957  0.00000000 
      373   1    1.47769989  7.38961947  1.53272989 
      374   1    4.43356968  1.47823990 -1.53423989 
      375   2    2.95526979  2.95526979 -0.00112839 
      376   1    4.43264968  4.43264968  1.53091989 
      377   1    7.38961947 -1.47769989 -1.53272989 
      378   2    5.91149957  0.00000000  0.00000000 
      379   1    7.38961947  1.47769989  1.53272989 
      380   1    10.34419925 -4.43174968 -1.53027989 
      381   2    8.86783936 -2.95396979  0.00269296 
      382   1    10.34619925 -1.47585989  1.53502989 
      383   1    13.29809904 -7.38710947 -1.52926989 
      384   2    11.82279915 -5.90826958  0.00390051 
      385   1    13.30119904 -4.42897968  1.53593989 
      386   1    16.25519883 -10.34169926 -1.52800989 
      387   2    14.77759893 -8.86395936  0.00448027 
      388   1    16.25699883 -7.38449947  1.53539989 
      389   1    19.21679861 -13.29429904 -1.52731989 
      390   2    17.73569872 -11.81809915  0.00466787 
      391   1    19.21809861 -10.33879925  1.53363989 
      392   1    22.18379840 -16.24909883 -1.52585989 
      393   2    20.69959850 -14.77199893  0.00420447 
      394   1    22.18499840 -13.29169904  1.53176989 
      395   1    25.15649818 -19.20789862 -1.52536989 
      396   2    23.67049829 -17.72839872  0.00300570 
      397   1    25.15989818 -16.24709883  1.52810989 
      398   1    28.13629797 -22.17209840 -1.52760989 
      399   2    26.64799807 -20.69029851  0.00007095 
      400   1    28.14229797 -19.20559862  1.52263989 
      401   2    29.63489786 -23.65699829 -0.00458397 
      402   1   -16.24779883  28.14819797 -1.52548989 
      403   2   -17.72669872  29.64869786  0.00021577 
      404   1   -13.29269904  25.16479818 -1.52553989 
      405   2   -14.77019894  26.65769808  0.00278098 
      406   1   -13.28929904  28.15099797  1.52779989 
      407   1   -10.34049925  22.18889840 -1.52706989 
      408   2   -11.81639915  23.67709829  0.00330902 
      409   1   -10.33689925  25.16649818  1.52900989 
      410   1   -7.38683947  19.21949861 -1.52814989 
      411   2   -8.86299936  20.70499850  0.00325629 
      412   1   -7.38336947  22.19119840  1.53132989 
      413   1   -4.43291968  16.25669883 -1.53044989 
      414   2   -5.90874958  17.73919872  0.00291350 
      415   1   -4.43005968  19.22239861  1.53285989 
      416   1   -1.47880989  13.30109904 -1.53345989 
      417   2   -2.95359979  14.78079893  0.00194274 
      418   1   -1.47559989  16.25939883  1.53448989 
      419   1    1.47585989  10.34619925 -1.53502989 
      420   2   -0.00000000  11.82469915  0.00000000 
      421   1    1.47880989  13.30109904  1.53345989 
      422   1    4.43167968  7.38918947 -1.53560989 
      423   2    2.95396979  8.86783936 -0.00269296 
      424   1    4.43174968  10.34419925  1.53027989 
      425   1    7.38918947  4.43167968 -1.53560989 
      426   2    5.91022957  5.91022957 -0.00398267 
      427   1    7.38726946  7.38726946  1.52907989 
      428   1    10.34619925  1.47585989 -1.53502989 
      429   2    8.86783936  2.95396979 -0.00269296 
      430   1    10.34419925  4.43174968  1.53027989 
      431   1    13.30109904 -1.47880989 -1.53345989 
      432   2    11.82469915  0.00000000  0.00000000 
      433   1    13.30109904  1.47880989  1.53345989 
      434   1    16.25669883 -4.43291968 -1.53044989 
      435   2    14.78079893 -2.95359979  0.00194274 
      436   1    16.25939883 -1.47559989  1.53448989 
      437   1    19.21949861 -7.38683947 -1.52814989 
      438   2    17.73919872 -5.90874958  0.00291350 
      439   1    19.22239861 -4.43005968  1.53285989 
      440   1    22.18889840 -10.34049925 -1.52706989 
      441   2    20.70499850 -8.86299936  0.00325629 
      442   1    22.19119840 -7.38336947  1.53132989 
      443   1    25.16479818 -13.29269904 -1.52553989 
      444   2    23.67709829 -11.81639915  0.00330902 
      445   1    25.16649818 -10.33689925  1.52900989 
      446   1    28.14819797 -16.24779883 -1.52548989 
      447   2    26.65769808 -14.77019894  0.00278098 
      448   1    28.15099797 -13.28929904  1.52779989 
      449   2    29.64869786 -17.72669872  0.00021577 
      450   1   -10.33799925  28.15429797 -1.52578989 
      451   2   -11.81319915  29.65629786  0.00245235 
      452   1   -7.38466947  25.16799818 -1.52665989 
      453   2   -8.86049936  26.66289807  0.00206845 
      454   1   -7.38057947  28.15619797  1.52833989 
      455   1   -4.43204968  22.19019840 -1.52844989 
      456   2   -5.90708957  23.68089829  0.00178475 
      457   1   -4.42826968  25.16999818  1.52889989 
      458   1   -1.47906989  19.22139861 -1.53152989 
      459   2   -2.95402979  20.70699851  0.00110222 
      460   1   -1.47552989  22.19169840  1.53056989 
      461   1    1.47559989  16.25939883 -1.53448989 
      462   2   -0.00000000  17.74089872  0.00000000 
      463   1    1.47906989  19.22139861  1.53152989 
      464   1    4.42897968  13.30119904 -1.53593989 
      465   2    2.95359979  14.78079893 -0.00194274 
      466   1    4.43291968  16.25669883  1.53044989 
      467   1    7.38542947  10.34369925 -1.53658989 
      468   2    5.90826958  11.82279915 -0.00390051 
      469   1    7.38710947  13.29809904  1.52926989 
      470   1    10.34369925  7.38542947 -1.53658989 
      471   2    8.86534936  8.86534936 -0.00486255 
      472   1    10.34249926  10.34249926  1.52814989 
      473   1    13.30119904  4.42897968 -1.53593989 
      474   2    11.82279915  5.90826958 -0.00390051 
      475   1    13.29809904  7.38710947  1.52926989 
      476   1    16.25939883  1.47559989 -1.53448989 
      477   2    14.78079893  2.95359979 -0.00194274 
      478   1    16.25669883  4.43291968  1.53044989 
      479   1    19.22139861 -1.47906989 -1.53152989 
      480   2    17.74089872  0.00000000  0.00000000 
      481   1    19.22139861  1.47906989  1.53152989 
      482   1    22.19019840 -4.43204968 -1.52844989 
      483   2    20.70699851 -2.95402979  0.00110222 
      484   1    22.19169840 -1.47552989  1.53056989 
      485   1    25.16799818 -7.38466947 -1.52665989 
      486   2    23.68089829 -5.90708957  0.00178475 
      487   1    25.16999818 -4.42826968  1.52889989 
      488   1    28.15429797 -10.33799925 -1.52578989 
      489   2    26.66289807 -8.86049936  0.00206845 
      490   1    28.15619797 -7.38057947  1.52833989 
      491   2    29.65629786 -11.81319915  0.00245235 
      492   1   -4.43016968  28.15539797 -1.52713989 
      493   2   -5.90421958  29.65949786  0.00122030 
      494   1   -1.47823990  25.16859819 -1.52838989 
      495   2   -2.95236979  26.66479807  0.00071444 
      496   1   -1.47411989  28.15629797  1.52863989 
      497   1    1.47552989  22.19169840 -1.53056989 
      498   2   -0.00000000  23.68129829  0.00000000 
      499   1    1.47823990  25.16859819  1.52838989 
      500   1    4.43005968  19.22239861 -1.53285989 
      501   2    2.95402979  20.70699851 -0.00110222 
      502   1    4.43204968  22.19019840  1.52844989 
      503   1    7.38449947  16.25699883 -1.53539989 
      504   2    5.90874958  17.73919872 -0.00291350 
      505   1    7.38683947  19.21949861  1.52814989 
      506   1    10.33999925  13.29679904 -1.53716989 
      507   2    8.86395936  14.77759893 -0.00448026 
      508   1    10.34169926  16.25519883  1.52800989 
      509   1    13.29679904  10.33999925 -1.53716989 
      510   2    11.81989915  11.81989915 -0.00523545 
      511   1    13.29669904  13.29669904  1.52842989 
      512   1    16.25699883  7.38449947 -1.53539989 
      513   2    14.77759893  8.86395936 -0.00448026 
      514   1    16.25519883  10.34169926  1.52800989 
      515   1    19.22239861  4.43005968 -1.53285989 
      516   2    17.73919872  5.90874958 -0.00291350 
      517   1    19.21949861  7.38683947  1.52814989 
      518   1    22.19169840  1.47552989 -1.53056989 
      519   2    20.70699851  2.95402979 -0.00110222 
      520   1    22.19019840  4.43204968  1.52844989 
      521   1    25.16859819 -1.47823990 -1.52838989 
      522   2    23.68129829  0.00000000  0.00000000 
      523   1    25.16859819  1.47823990  1.52838989 
      524   1    28.15539797 -4.43016968 -1.52713989 
      525   2    26.66479807 -2.95236979  0.00071445 
      526   1    28.15629797 -1.47411989  1.52863989 
      527   2    29.65949786 -5.90421958  0.00122030 
      528   1    1.47411989  28.15629797 -1.52863989 
      529   2   -0.00000000  29.66009786  0.00000000 
      530   1    4.42826968  25.16999818 -1.52889989 
      531   2    2.95236979  26.66479807 -0.00071444 
      532   1    4.43016968  28.15539797  1.52713989 
      533   1    7.38336947  22.19119840 -1.53132989 
      534   2    5.90708957  23.68089829 -0.00178475 
      535   1    7.38466947  25.16799818  1.52665989 
      536   1    10.33879925  19.21809861 -1.53363989 
      537   2    8.86299936  20.70499850 -0.00325629 
      538   1    10.34049925  22.18889840  1.52706989 
      539   1    13.29309904  16.25179883 -1.53642989 
      540   2    11.81809915  17.73569872 -0.00466787 
      541   1    13.29429904  19.21679861  1.52731989 
      542   1    16.25179883  13.29309904 -1.53642989 
      543   2    14.77429893  14.77429893 -0.00539495 
      544   1    16.25199883  16.25199883  1.52744989 
      545   1    19.21809861  10.33879925 -1.53363989 
      546   2    17.73569872  11.81809915 -0.00466787 
      547   1    19.21679861  13.29429904  1.52731989 
      548   1    22.19119840  7.38336947 -1.53132989 