LAMMPS configuration data file

  6983 atoms

  3 atom types

  -53.453325  53.453325  xlo xhi
  -53.453325  53.453325  ylo yhi
  -53.453325  53.453325  zlo zhi

 Masses

  1   32.065
  2   112.411
  3   78.960

 Atoms

        1   1   -23.27187800 -17.45390850  17.45390850 
        2   1   -20.36289325 -20.36289325  17.45390850 
        3   2   -21.81738563 -18.90840088  18.90840087 
        4   1   -20.36289325 -17.45390850  20.36289325 
        5   1   -17.45390850 -23.27187800  17.45390850 
        6   2   -18.90840088 -21.81738563  18.90840087 
        7   1   -17.45390850 -20.36289325  20.36289325 
        8   2   -18.90840088 -18.90840088  21.81738562 
        9   1   -17.45390850 -17.45390850  23.27187800 
       10   1   -29.08984750 -17.45390850  5.81796950 
       11   1   -29.08984750 -14.54492375  8.72695425 
       12   1   -29.08984750 -11.63593900  11.63593900 
       13   1   -29.08984750 -8.72695425  14.54492375 
       14   1   -29.08984750 -5.81796950  17.45390850 
       15   1   -26.18086275 -20.36289325  5.81796950 
       16   2   -27.63535513 -18.90840088  7.27246187 
       17   1   -26.18086275 -17.45390850  8.72695425 
       18   2   -27.63535513 -15.99941613  10.18144662 
       19   1   -26.18086275 -14.54492375  11.63593900 
       20   2   -27.63535513 -13.09043138  13.09043137 
       21   1   -26.18086275 -11.63593900  14.54492375 
       22   2   -27.63535513 -10.18144663  15.99941612 
       23   1   -26.18086275 -8.72695425  17.45390850 
       24   2   -27.63535513 -7.27246188  18.90840087 
       25   1   -26.18086275 -5.81796950  20.36289325 
       26   1   -23.27187800 -23.27187800  5.81796950 
       27   2   -24.72637038 -21.81738563  7.27246187 
       28   1   -23.27187800 -20.36289325  8.72695425 
       29   2   -24.72637038 -18.90840088  10.18144662 
       30   1   -23.27187800 -17.45390850  11.63593900 
       31   2   -24.72637038 -15.99941613  13.09043137 
       32   1   -23.27187800 -14.54492375  14.54492375 
       33   2   -24.72637038 -13.09043138  15.99941612 
       34   1   -23.27187800 -11.63593900  17.45390850 
       35   2   -24.72637038 -10.18144663  18.90840087 
       36   1   -23.27187800 -8.72695425  20.36289325 
       37   2   -24.72637038 -7.27246188  21.81738562 
       38   1   -23.27187800 -5.81796950  23.27187800 
       39   1   -20.36289325 -26.18086275  5.81796950 
       40   2   -21.81738563 -24.72637038  7.27246187 
       41   1   -20.36289325 -23.27187800  8.72695425 
       42   2   -21.81738563 -21.81738563  10.18144662 
       43   1   -20.36289325 -20.36289325  11.63593900 
       44   2   -21.81738563 -18.90840088  13.09043137 
       45   1   -20.36289325 -17.45390850  14.54492375 
       46   2   -21.81738563 -15.99941613  15.99941612 
       47   1   -20.36289325 -14.54492375  17.45390850 
       48   2   -21.81738563 -13.09043138  18.90840087 
       49   1   -20.36289325 -11.63593900  20.36289325 
       50   2   -21.81738563 -10.18144663  21.81738562 
       51   1   -20.36289325 -8.72695425  23.27187800 
       52   2   -21.81738563 -7.27246188  24.72637037 
       53   1   -20.36289325 -5.81796950  26.18086275 
       54   1   -17.45390850 -29.08984750  5.81796950 
       55   2   -18.90840088 -27.63535513  7.27246187 
       56   1   -17.45390850 -26.18086275  8.72695425 
       57   2   -18.90840088 -24.72637038  10.18144662 
       58   1   -17.45390850 -23.27187800  11.63593900 
       59   2   -18.90840088 -21.81738563  13.09043137 
       60   1   -17.45390850 -20.36289325  14.54492375 
       61   2   -18.90840088 -18.90840088  15.99941612 
       62   1   -17.45390850 -17.45390850  17.45390850 
       63   2   -18.90840088 -15.99941613  18.90840087 
       64   1   -17.45390850 -14.54492375  20.36289325 
       65   2   -18.90840088 -13.09043138  21.81738562 
       66   1   -17.45390850 -11.63593900  23.27187800 
       67   2   -18.90840088 -10.18144663  24.72637037 
       68   1   -17.45390850 -8.72695425  26.18086275 
       69   2   -18.90840088 -7.27246188  27.63535512 
       70   1   -17.45390850 -5.81796950  29.08984750 
       71   1   -14.54492375 -29.08984750  8.72695425 
       72   2   -15.99941613 -27.63535513  10.18144662 
       73   1   -14.54492375 -26.18086275  11.63593900 
       74   2   -15.99941613 -24.72637038  13.09043137 
       75   1   -14.54492375 -23.27187800  14.54492375 
       76   2   -15.99941613 -21.81738563  15.99941612 
       77   1   -14.54492375 -20.36289325  17.45390850 
       78   2   -15.99941613 -18.90840088  18.90840087 
       79   1   -14.54492375 -17.45390850  20.36289325 
       80   2   -15.99941613 -15.99941613  21.81738562 
       81   1   -14.54492375 -14.54492375  23.27187800 
       82   2   -15.99941613 -13.09043138  24.72637037 
       83   1   -14.54492375 -11.63593900  26.18086275 
       84   2   -15.99941613 -10.18144663  27.63535512 
       85   1   -14.54492375 -8.72695425  29.08984750 
       86   1   -11.63593900 -29.08984750  11.63593900 
       87   2   -13.09043138 -27.63535513  13.09043137 
       88   1   -11.63593900 -26.18086275  14.54492375 
       89   2   -13.09043138 -24.72637038  15.99941612 
       90   1   -11.63593900 -23.27187800  17.45390850 
       91   2   -13.09043138 -21.81738563  18.90840087 
       92   1   -11.63593900 -20.36289325  20.36289325 
       93   2   -13.09043138 -18.90840088  21.81738562 
       94   1   -11.63593900 -17.45390850  23.27187800 
       95   2   -13.09043138 -15.99941613  24.72637037 
       96   1   -11.63593900 -14.54492375  26.18086275 
       97   2   -13.09043138 -13.09043138  27.63535512 
       98   1   -11.63593900 -11.63593900  29.08984750 
       99   1   -8.72695425 -29.08984750  14.54492375 
      100   2   -10.18144663 -27.63535513  15.99941612 
      101   1   -8.72695425 -26.18086275  17.45390850 
      102   2   -10.18144663 -24.72637038  18.90840087 
      103   1   -8.72695425 -23.27187800  20.36289325 
      104   2   -10.18144663 -21.81738563  21.81738562 
      105   1   -8.72695425 -20.36289325  23.27187800 
      106   2   -10.18144663 -18.90840088  24.72637037 
      107   1   -8.72695425 -17.45390850  26.18086275 
      108   2   -10.18144663 -15.99941613  27.63535512 
      109   1   -8.72695425 -14.54492375  29.08984750 
      110   1   -5.81796950 -29.08984750  17.45390850 
      111   2   -7.27246188 -27.63535513  18.90840087 
      112   1   -5.81796950 -26.18086275  20.36289325 
      113   2   -7.27246188 -24.72637038  21.81738562 
      114   1   -5.81796950 -23.27187800  23.27187800 
      115   2   -7.27246188 -21.81738563  24.72637037 
      116   1   -5.81796950 -20.36289325  26.18086275 
      117   2   -7.27246188 -18.90840088  27.63535512 
      118   1   -5.81796950 -17.45390850  29.08984750 
      119   1   -31.99883225 -11.63593900  2.90898475 
      120   1   -31.99883225 -8.72695425  5.81796950 
      121   1   -31.99883225 -5.81796950  8.72695425 
      122   1   -31.99883225 -2.90898475  11.63593900 
      123   1   -29.08984750 -17.45390850 -0.00000000 
      124   2   -30.54433988 -15.99941613  1.45449237 
      125   1   -29.08984750 -14.54492375  2.90898475 
      126   2   -30.54433988 -13.09043138  4.36347712 
      127   1   -29.08984750 -11.63593900  5.81796950 
      128   2   -30.54433988 -10.18144663  7.27246187 
      129   1   -29.08984750 -8.72695425  8.72695425 
      130   2   -30.54433988 -7.27246188  10.18144662 
      131   1   -29.08984750 -5.81796950  11.63593900 
      132   2   -30.54433988 -4.36347713  13.09043137 
      133   1   -29.08984750 -2.90898475  14.54492375 
      134   2   -30.54433988 -1.45449238  15.99941612 
      135   1   -29.08984750 -0.00000000  17.45390850 
      136   1   -26.18086275 -20.36289325 -0.00000000 
      137   2   -27.63535513 -18.90840088  1.45449237 
      138   1   -26.18086275 -17.45390850  2.90898475 
      139   2   -27.63535513 -15.99941613  4.36347712 
      140   1   -26.18086275 -14.54492375  5.81796950 
      141   2   -27.63535513 -13.09043138  7.27246187 
      142   1   -26.18086275 -11.63593900  8.72695425 
      143   2   -27.63535513 -10.18144663  10.18144662 
      144   1   -26.18086275 -8.72695425  11.63593900 
      145   2   -27.63535513 -7.27246188  13.09043137 
      146   1   -26.18086275 -5.81796950  14.54492375 
      147   2   -27.63535513 -4.36347713  15.99941612 
      148   1   -26.18086275 -2.90898475  17.45390850 
      149   2   -27.63535513 -1.45449238  18.90840087 
      150   1   -26.18086275 -0.00000000  20.36289325 
      151   1   -23.27187800 -23.27187800 -0.00000000 
      152   2   -24.72637038 -21.81738563  1.45449237 
      153   1   -23.27187800 -20.36289325  2.90898475 
      154   2   -24.72637038 -18.90840088  4.36347712 
      155   1   -23.27187800 -17.45390850  5.81796950 
      156   2   -24.72637038 -15.99941613  7.27246187 
      157   1   -23.27187800 -14.54492375  8.72695425 
      158   2   -24.72637038 -13.09043138  10.18144662 
      159   1   -23.27187800 -11.63593900  11.63593900 
      160   2   -24.72637038 -10.18144663  13.09043137 
      161   1   -23.27187800 -8.72695425  14.54492375 
      162   2   -24.72637038 -7.27246188  15.99941612 
      163   1   -23.27187800 -5.81796950  17.45390850 
      164   2   -24.72637038 -4.36347713  18.90840087 
      165   1   -23.27187800 -2.90898475  20.36289325 
      166   2   -24.72637038 -1.45449238  21.81738562 
      167   1   -23.27187800 -0.00000000  23.27187800 
      168   1   -20.36289325 -26.18086275 -0.00000000 
      169   2   -21.81738563 -24.72637038  1.45449237 
      170   1   -20.36289325 -23.27187800  2.90898475 
      171   2   -21.81738563 -21.81738563  4.36347712 
      172   1   -20.36289325 -20.36289325  5.81796950 
      173   2   -21.81738563 -18.90840088  7.27246187 
      174   1   -20.36289325 -17.45390850  8.72695425 
      175   2   -21.81738563 -15.99941613  10.18144662 
      176   1   -20.36289325 -14.54492375  11.63593900 
      177   2   -21.81738563 -13.09043138  13.09043137 
      178   1   -20.36289325 -11.63593900  14.54492375 
      179   2   -21.81738563 -10.18144663  15.99941612 
      180   1   -20.36289325 -8.72695425  17.45390850 
      181   2   -21.81738563 -7.27246188  18.90840087 
      182   1   -20.36289325 -5.81796950  20.36289325 
      183   2   -21.81738563 -4.36347713  21.81738562 
      184   1   -20.36289325 -2.90898475  23.27187800 
      185   2   -21.81738563 -1.45449238  24.72637037 
      186   1   -20.36289325 -0.00000000  26.18086275 
      187   1   -17.45390850 -29.08984750 -0.00000000 
      188   2   -18.90840088 -27.63535513  1.45449237 
      189   1   -17.45390850 -26.18086275  2.90898475 
      190   2   -18.90840088 -24.72637038  4.36347712 
      191   1   -17.45390850 -23.27187800  5.81796950 
      192   2   -18.90840088 -21.81738563  7.27246187 
      193   1   -17.45390850 -20.36289325  8.72695425 
      194   2   -18.90840088 -18.90840088  10.18144662 
      195   1   -17.45390850 -17.45390850  11.63593900 
      196   2   -18.90840088 -15.99941613  13.09043137 
      197   1   -17.45390850 -14.54492375  14.54492375 
      198   2   -18.90840088 -13.09043138  15.99941612 
      199   1   -17.45390850 -11.63593900  17.45390850 
      200   2   -18.90840088 -10.18144663  18.90840087 
      201   1   -17.45390850 -8.72695425  20.36289325 
      202   2   -18.90840088 -7.27246188  21.81738562 
      203   1   -17.45390850 -5.81796950  23.27187800 
      204   2   -18.90840088 -4.36347713  24.72637037 
      205   1   -17.45390850 -2.90898475  26.18086275 
      206   2   -18.90840088 -1.45449238  27.63535512 
      207   1   -17.45390850 -0.00000000  29.08984750 
      208   2   -15.99941613 -30.54433988  1.45449237 
      209   1   -14.54492375 -29.08984750  2.90898475 
      210   2   -15.99941613 -27.63535513  4.36347712 
      211   1   -14.54492375 -26.18086275  5.81796950 
      212   2   -15.99941613 -24.72637038  7.27246187 
      213   1   -14.54492375 -23.27187800  8.72695425 
      214   2   -15.99941613 -21.81738563  10.18144662 
      215   1   -14.54492375 -20.36289325  11.63593900 
      216   2   -15.99941613 -18.90840088  13.09043137 
      217   1   -14.54492375 -17.45390850  14.54492375 
      218   2   -15.99941613 -15.99941613  15.99941612 
      219   1   -14.54492375 -14.54492375  17.45390850 
      220   2   -15.99941613 -13.09043138  18.90840087 
      221   1   -14.54492375 -11.63593900  20.36289325 
      222   2   -15.99941613 -10.18144663  21.81738562 
      223   1   -14.54492375 -8.72695425  23.27187800 
      224   2   -15.99941613 -7.27246188  24.72637037 
      225   1   -14.54492375 -5.81796950  26.18086275 
      226   2   -15.99941613 -4.36347713  27.63535512 
      227   1   -14.54492375 -2.90898475  29.08984750 
      228   2   -15.99941613 -1.45449238  30.54433987 
      229   1   -11.63593900 -31.99883225  2.90898475 
      230   2   -13.09043138 -30.54433988  4.36347712 
      231   1   -11.63593900 -29.08984750  5.81796950 
      232   2   -13.09043138 -27.63535513  7.27246187 
      233   1   -11.63593900 -26.18086275  8.72695425 
      234   2   -13.09043138 -24.72637038  10.18144662 
      235   1   -11.63593900 -23.27187800  11.63593900 
      236   2   -13.09043138 -21.81738563  13.09043137 
      237   1   -11.63593900 -20.36289325  14.54492375 
      238   2   -13.09043138 -18.90840088  15.99941612 
      239   1   -11.63593900 -17.45390850  17.45390850 
      240   2   -13.09043138 -15.99941613  18.90840087 
      241   1   -11.63593900 -14.54492375  20.36289325 
      242   2   -13.09043138 -13.09043138  21.81738562 
      243   1   -11.63593900 -11.63593900  23.27187800 
      244   2   -13.09043138 -10.18144663  24.72637037 
      245   1   -11.63593900 -8.72695425  26.18086275 
      246   2   -13.09043138 -7.27246188  27.63535512 
      247   1   -11.63593900 -5.81796950  29.08984750 
      248   2   -13.09043138 -4.36347713  30.54433987 
      249   1   -11.63593900 -2.90898475  31.99883225 
      250   1   -8.72695425 -31.99883225  5.81796950 
      251   2   -10.18144663 -30.54433988  7.27246187 
      252   1   -8.72695425 -29.08984750  8.72695425 
      253   2   -10.18144663 -27.63535513  10.18144662 
      254   1   -8.72695425 -26.18086275  11.63593900 
      255   2   -10.18144663 -24.72637038  13.09043137 
      256   1   -8.72695425 -23.27187800  14.54492375 
      257   2   -10.18144663 -21.81738563  15.99941612 
      258   1   -8.72695425 -20.36289325  17.45390850 
      259   2   -10.18144663 -18.90840088  18.90840087 
      260   1   -8.72695425 -17.45390850  20.36289325 
      261   2   -10.18144663 -15.99941613  21.81738562 
      262   1   -8.72695425 -14.54492375  23.27187800 
      263   2   -10.18144663 -13.09043138  24.72637037 
      264   1   -8.72695425 -11.63593900  26.18086275 
      265   2   -10.18144663 -10.18144663  27.63535512 
      266   1   -8.72695425 -8.72695425  29.08984750 
      267   2   -10.18144663 -7.27246188  30.54433987 
      268   1   -8.72695425 -5.81796950  31.99883225 
      269   1   -5.81796950 -31.99883225  8.72695425 
      270   2   -7.27246188 -30.54433988  10.18144662 
      271   1   -5.81796950 -29.08984750  11.63593900 
      272   2   -7.27246188 -27.63535513  13.09043137 
      273   1   -5.81796950 -26.18086275  14.54492375 
      274   2   -7.27246188 -24.72637038  15.99941612 
      275   1   -5.81796950 -23.27187800  17.45390850 
      276   2   -7.27246188 -21.81738563  18.90840087 
      277   1   -5.81796950 -20.36289325  20.36289325 
      278   2   -7.27246188 -18.90840088  21.81738562 
      279   1   -5.81796950 -17.45390850  23.27187800 
      280   2   -7.27246188 -15.99941613  24.72637037 
      281   1   -5.81796950 -14.54492375  26.18086275 
      282   2   -7.27246188 -13.09043138  27.63535512 
      283   1   -5.81796950 -11.63593900  29.08984750 
      284   2   -7.27246188 -10.18144663  30.54433987 
      285   1   -5.81796950 -8.72695425  31.99883225 
      286   1   -2.90898475 -31.99883225  11.63593900 
      287   2   -4.36347713 -30.54433988  13.09043137 
      288   1   -2.90898475 -29.08984750  14.54492375 
      289   2   -4.36347713 -27.63535513  15.99941612 
      290   1   -2.90898475 -26.18086275  17.45390850 
      291   2   -4.36347713 -24.72637038  18.90840087 
      292   1   -2.90898475 -23.27187800  20.36289325 
      293   2   -4.36347713 -21.81738563  21.81738562 
      294   1   -2.90898475 -20.36289325  23.27187800 
      295   2   -4.36347713 -18.90840088  24.72637037 
      296   1   -2.90898475 -17.45390850  26.18086275 
      297   2   -4.36347713 -15.99941613  27.63535512 
      298   1   -2.90898475 -14.54492375  29.08984750 
      299   2   -4.36347713 -13.09043138  30.54433987 
      300   1   -2.90898475 -11.63593900  31.99883225 
      301   2   -1.45449238 -30.54433988  15.99941612 
      302   1   -0.00000000 -29.08984750  17.45390850 
      303   2   -1.45449238 -27.63535513  18.90840087 
      304   1   -0.00000000 -26.18086275  20.36289325 
      305   2   -1.45449238 -24.72637038  21.81738562 
      306   1   -0.00000000 -23.27187800  23.27187800 
      307   2   -1.45449238 -21.81738563  24.72637037 
      308   1   -0.00000000 -20.36289325  26.18086275 
      309   2   -1.45449238 -18.90840088  27.63535512 
      310   1   -0.00000000 -17.45390850  29.08984750 
      311   2   -1.45449238 -15.99941613  30.54433987 
      312   1   -31.99883225 -11.63593900 -2.90898475 
      313   1   -31.99883225 -8.72695425 -0.00000000 
      314   2   -33.45332463 -7.27246188  1.45449237 
      315   1   -31.99883225 -5.81796950  2.90898475 
      316   2   -33.45332463 -4.36347713  4.36347712 
      317   1   -31.99883225 -2.90898475  5.81796950 
      318   2   -33.45332463 -1.45449238  7.27246187 
      319   1   -31.99883225 -0.00000000  8.72695425 
      320   1   -31.99883225  2.90898475  11.63593900 
      321   1   -29.08984750 -17.45390850 -5.81796950 
      322   1   -29.08984750 -14.54492375 -2.90898475 
      323   2   -30.54433988 -13.09043138 -1.45449238 
      324   1   -29.08984750 -11.63593900 -0.00000000 
      325   2   -30.54433988 -10.18144663  1.45449237 
      326   1   -29.08984750 -8.72695425  2.90898475 
      327   2   -30.54433988 -7.27246188  4.36347712 
      328   1   -29.08984750 -5.81796950  5.81796950 
      329   2   -30.54433988 -4.36347713  7.27246187 
      330   1   -29.08984750 -2.90898475  8.72695425 
      331   2   -30.54433988 -1.45449238  10.18144662 
      332   1   -29.08984750 -0.00000000  11.63593900 
      333   2   -30.54433988  1.45449237  13.09043137 
      334   1   -29.08984750  2.90898475  14.54492375 
      335   1   -29.08984750  5.81796950  17.45390850 
      336   1   -26.18086275 -20.36289325 -5.81796950 
      337   2   -27.63535513 -18.90840088 -4.36347713 
      338   1   -26.18086275 -17.45390850 -2.90898475 
      339   2   -27.63535513 -15.99941613 -1.45449238 
      340   1   -26.18086275 -14.54492375 -0.00000000 
      341   2   -27.63535513 -13.09043138  1.45449237 
      342   1   -26.18086275 -11.63593900  2.90898475 
      343   2   -27.63535513 -10.18144663  4.36347712 
      344   1   -26.18086275 -8.72695425  5.81796950 
      345   2   -27.63535513 -7.27246188  7.27246187 
      346   1   -26.18086275 -5.81796950  8.72695425 
      347   2   -27.63535513 -4.36347713  10.18144662 
      348   1   -26.18086275 -2.90898475  11.63593900 
      349   2   -27.63535513 -1.45449238  13.09043137 
      350   1   -26.18086275 -0.00000000  14.54492375 
      351   2   -27.63535513  1.45449237  15.99941612 
      352   1   -26.18086275  2.90898475  17.45390850 
      353   2   -27.63535513  4.36347712  18.90840087 
      354   1   -26.18086275  5.81796950  20.36289325 
      355   1   -23.27187800 -23.27187800 -5.81796950 
      356   2   -24.72637038 -21.81738563 -4.36347713 
      357   1   -23.27187800 -20.36289325 -2.90898475 
      358   2   -24.72637038 -18.90840088 -1.45449238 
      359   1   -23.27187800 -17.45390850 -0.00000000 
      360   2   -24.72637038 -15.99941613  1.45449237 
      361   1   -23.27187800 -14.54492375  2.90898475 
      362   2   -24.72637038 -13.09043138  4.36347712 
      363   1   -23.27187800 -11.63593900  5.81796950 
      364   2   -24.72637038 -10.18144663  7.27246187 
      365   1   -23.27187800 -8.72695425  8.72695425 
      366   2   -24.72637038 -7.27246188  10.18144662 
      367   1   -23.27187800 -5.81796950  11.63593900 
      368   2   -24.72637038 -4.36347713  13.09043137 
      369   1   -23.27187800 -2.90898475  14.54492375 
      370   2   -24.72637038 -1.45449238  15.99941612 
      371   1   -23.27187800 -0.00000000  17.45390850 
      372   2   -24.72637038  1.45449237  18.90840087 
      373   1   -23.27187800  2.90898475  20.36289325 
      374   2   -24.72637038  4.36347712  21.81738562 
      375   1   -23.27187800  5.81796950  23.27187800 
      376   1   -20.36289325 -26.18086275 -5.81796950 
      377   2   -21.81738563 -24.72637038 -4.36347713 
      378   1   -20.36289325 -23.27187800 -2.90898475 
      379   2   -21.81738563 -21.81738563 -1.45449238 
      380   1   -20.36289325 -20.36289325 -0.00000000 
      381   2   -21.81738563 -18.90840088  1.45449237 
      382   1   -20.36289325 -17.45390850  2.90898475 
      383   2   -21.81738563 -15.99941613  4.36347712 
      384   1   -20.36289325 -14.54492375  5.81796950 
      385   2   -21.81738563 -13.09043138  7.27246187 
      386   1   -20.36289325 -11.63593900  8.72695425 
      387   2   -21.81738563 -10.18144663  10.18144662 
      388   1   -20.36289325 -8.72695425  11.63593900 
      389   2   -21.81738563 -7.27246188  13.09043137 
      390   1   -20.36289325 -5.81796950  14.54492375 
      391   2   -21.81738563 -4.36347713  15.99941612 
      392   1   -20.36289325 -2.90898475  17.45390850 
      393   2   -21.81738563 -1.45449238  18.90840087 
      394   1   -20.36289325 -0.00000000  20.36289325 
      395   2   -21.81738563  1.45449237  21.81738562 
      396   1   -20.36289325  2.90898475  23.27187800 
      397   2   -21.81738563  4.36347712  24.72637037 
      398   1   -20.36289325  5.81796950  26.18086275 
      399   1   -17.45390850 -29.08984750 -5.81796950 
      400   2   -18.90840088 -27.63535513 -4.36347713 
      401   1   -17.45390850 -26.18086275 -2.90898475 
      402   2   -18.90840088 -24.72637038 -1.45449238 
      403   1   -17.45390850 -23.27187800 -0.00000000 
      404   2   -18.90840088 -21.81738563  1.45449237 
      405   1   -17.45390850 -20.36289325  2.90898475 
      406   2   -18.90840088 -18.90840088  4.36347712 
      407   1   -17.45390850 -17.45390850  5.81796950 
      408   2   -18.90840088 -15.99941613  7.27246187 
      409   1   -17.45390850 -14.54492375  8.72695425 
      410   2   -18.90840088 -13.09043138  10.18144662 
      411   1   -17.45390850 -11.63593900  11.63593900 
      412   2   -18.90840088 -10.18144663  13.09043137 
      413   1   -17.45390850 -8.72695425  14.54492375 
      414   2   -18.90840088 -7.27246188  15.99941612 
      415   1   -17.45390850 -5.81796950  17.45390850 
      416   2   -18.90840088 -4.36347713  18.90840087 
      417   1   -17.45390850 -2.90898475  20.36289325 
      418   2   -18.90840088 -1.45449238  21.81738562 
      419   1   -17.45390850 -0.00000000  23.27187800 
      420   2   -18.90840088  1.45449237  24.72637037 
      421   1   -17.45390850  2.90898475  26.18086275 
      422   2   -18.90840088  4.36347712  27.63535512 
      423   1   -17.45390850  5.81796950  29.08984750 
      424   1   -14.54492375 -29.08984750 -2.90898475 
      425   2   -15.99941613 -27.63535513 -1.45449238 
      426   1   -14.54492375 -26.18086275 -0.00000000 
      427   2   -15.99941613 -24.72637038  1.45449237 
      428   1   -14.54492375 -23.27187800  2.90898475 
      429   2   -15.99941613 -21.81738563  4.36347712 
      430   1   -14.54492375 -20.36289325  5.81796950 
      431   2   -15.99941613 -18.90840088  7.27246187 
      432   1   -14.54492375 -17.45390850  8.72695425 
      433   2   -15.99941613 -15.99941613  10.18144662 
      434   1   -14.54492375 -14.54492375  11.63593900 
      435   2   -15.99941613 -13.09043138  13.09043137 
      436   1   -14.54492375 -11.63593900  14.54492375 
      437   2   -15.99941613 -10.18144663  15.99941612 
      438   1   -14.54492375 -8.72695425  17.45390850 
      439   2   -15.99941613 -7.27246188  18.90840087 
      440   1   -14.54492375 -5.81796950  20.36289325 
      441   2   -15.99941613 -4.36347713  21.81738562 
      442   1   -14.54492375 -2.90898475  23.27187800 
      443   2   -15.99941613 -1.45449238  24.72637037 
      444   1   -14.54492375 -0.00000000  26.18086275 
      445   2   -15.99941613  1.45449237  27.63535512 
      446   1   -14.54492375  2.90898475  29.08984750 
      447   1   -11.63593900 -31.99883225 -2.90898475 
      448   2   -13.09043138 -30.54433988 -1.45449238 
      449   1   -11.63593900 -29.08984750 -0.00000000 
      450   2   -13.09043138 -27.63535513  1.45449237 
      451   1   -11.63593900 -26.18086275  2.90898475 
      452   2   -13.09043138 -24.72637038  4.36347712 
      453   1   -11.63593900 -23.27187800  5.81796950 
      454   2   -13.09043138 -21.81738563  7.27246187 
      455   1   -11.63593900 -20.36289325  8.72695425 
      456   2   -13.09043138 -18.90840088  10.18144662 
      457   1   -11.63593900 -17.45390850  11.63593900 
      458   2   -13.09043138 -15.99941613  13.09043137 
      459   1   -11.63593900 -14.54492375  14.54492375 
      460   2   -13.09043138 -13.09043138  15.99941612 
      461   1   -11.63593900 -11.63593900  17.45390850 
      462   2   -13.09043138 -10.18144663  18.90840087 
      463   1   -11.63593900 -8.72695425  20.36289325 
      464   2   -13.09043138 -7.27246188  21.81738562 
      465   1   -11.63593900 -5.81796950  23.27187800 
      466   2   -13.09043138 -4.36347713  24.72637037 
      467   1   -11.63593900 -2.90898475  26.18086275 
      468   2   -13.09043138 -1.45449238  27.63535512 
      469   1   -11.63593900 -0.00000000  29.08984750 
      470   2   -13.09043138  1.45449237  30.54433987 
      471   1   -11.63593900  2.90898475  31.99883225 
      472   1   -8.72695425 -31.99883225 -0.00000000 
      473   2   -10.18144663 -30.54433988  1.45449237 
      474   1   -8.72695425 -29.08984750  2.90898475 
      475   2   -10.18144663 -27.63535513  4.36347712 
      476   1   -8.72695425 -26.18086275  5.81796950 
      477   2   -10.18144663 -24.72637038  7.27246187 
      478   1   -8.72695425 -23.27187800  8.72695425 
      479   2   -10.18144663 -21.81738563  10.18144662 
      480   1   -8.72695425 -20.36289325  11.63593900 
      481   2   -10.18144663 -18.90840088  13.09043137 
      482   1   -8.72695425 -17.45390850  14.54492375 
      483   2   -10.18144663 -15.99941613  15.99941612 
      484   1   -8.72695425 -14.54492375  17.45390850 
      485   2   -10.18144663 -13.09043138  18.90840087 
      486   1   -8.72695425 -11.63593900  20.36289325 
      487   2   -10.18144663 -10.18144663  21.81738562 
      488   1   -8.72695425 -8.72695425  23.27187800 
      489   2   -10.18144663 -7.27246188  24.72637037 
      490   1   -8.72695425 -5.81796950  26.18086275 
      491   2   -10.18144663 -4.36347713  27.63535512 
      492   1   -8.72695425 -2.90898475  29.08984750 
      493   2   -10.18144663 -1.45449238  30.54433987 
      494   1   -8.72695425 -0.00000000  31.99883225 
      495   2   -7.27246188 -33.45332463  1.45449237 
      496   1   -5.81796950 -31.99883225  2.90898475 
      497   2   -7.27246188 -30.54433988  4.36347712 
      498   1   -5.81796950 -29.08984750  5.81796950 
      499   2   -7.27246188 -27.63535513  7.27246187 
      500   1   -5.81796950 -26.18086275  8.72695425 
      501   2   -7.27246188 -24.72637038  10.18144662 
      502   1   -5.81796950 -23.27187800  11.63593900 
      503   2   -7.27246188 -21.81738563  13.09043137 
      504   1   -5.81796950 -20.36289325  14.54492375 
      505   2   -7.27246188 -18.90840088  15.99941612 
      506   1   -5.81796950 -17.45390850  17.45390850 
      507   2   -7.27246188 -15.99941613  18.90840087 
      508   1   -5.81796950 -14.54492375  20.36289325 
      509   2   -7.27246188 -13.09043138  21.81738562 
      510   1   -5.81796950 -11.63593900  23.27187800 
      511   2   -7.27246188 -10.18144663  24.72637037 
      512   1   -5.81796950 -8.72695425  26.18086275 
      513   2   -7.27246188 -7.27246188  27.63535512 
      514   1   -5.81796950 -5.81796950  29.08984750 
      515   2   -7.27246188 -4.36347713  30.54433987 
      516   1   -5.81796950 -2.90898475  31.99883225 
      517   2   -7.27246188 -1.45449238  33.45332462 
      518   2   -4.36347713 -33.45332463  4.36347712 
      519   1   -2.90898475 -31.99883225  5.81796950 
      520   2   -4.36347713 -30.54433988  7.27246187 
      521   1   -2.90898475 -29.08984750  8.72695425 
      522   2   -4.36347713 -27.63535513  10.18144662 
      523   1   -2.90898475 -26.18086275  11.63593900 
      524   2   -4.36347713 -24.72637038  13.09043137 
      525   1   -2.90898475 -23.27187800  14.54492375 
      526   2   -4.36347713 -21.81738563  15.99941612 
      527   1   -2.90898475 -20.36289325  17.45390850 
      528   2   -4.36347713 -18.90840088  18.90840087 
      529   1   -2.90898475 -17.45390850  20.36289325 
      530   2   -4.36347713 -15.99941613  21.81738562 
      531   1   -2.90898475 -14.54492375  23.27187800 
      532   2   -4.36347713 -13.09043138  24.72637037 
      533   1   -2.90898475 -11.63593900  26.18086275 
      534   2   -4.36347713 -10.18144663  27.63535512 
      535   1   -2.90898475 -8.72695425  29.08984750 
      536   2   -4.36347713 -7.27246188  30.54433987 
      537   1   -2.90898475 -5.81796950  31.99883225 
      538   2   -4.36347713 -4.36347713  33.45332462 
      539   2   -1.45449238 -33.45332463  7.27246187 