LAMMPS configuration data file

  8671 atoms

  3 atom types

  -57.816802  57.816802  xlo xhi
  -57.816802  57.816802  ylo yhi
  -37.453909  37.453909  zlo zhi

 Masses

  1   32.065
  2   112.411
  3   78.960

 Atoms

        1   1   -36.36230938 -36.36230938  13.09043137 
        2   2   -37.81680175 -34.90781700  14.54492375 
        3   1   -36.36230938 -33.45332463  15.99941612 
        4   2   -34.90781700 -37.81680175  14.54492375 
        5   1   -33.45332463 -36.36230938  15.99941612 
        6   2   -34.90781700 -34.90781700  17.45390850 
        7   1   -36.36230938 -36.36230938  7.27246187 
        8   2   -37.81680175 -34.90781700  8.72695425 
        9   1   -36.36230938 -33.45332463  10.18144662 
       10   2   -37.81680175 -31.99883225  11.63593900 
       11   1   -36.36230938 -30.54433988  13.09043137 
       12   2   -37.81680175 -29.08984750  14.54492375 
       13   1   -36.36230938 -27.63535513  15.99941612 
       14   2   -34.90781700 -37.81680175  8.72695425 
       15   1   -33.45332463 -36.36230938  10.18144662 
       16   2   -34.90781700 -34.90781700  11.63593900 
       17   1   -33.45332463 -33.45332463  13.09043137 
       18   2   -34.90781700 -31.99883225  14.54492375 
       19   1   -33.45332463 -30.54433988  15.99941612 
       20   2   -34.90781700 -29.08984750  17.45390850 
       21   2   -31.99883225 -37.81680175  11.63593900 
       22   1   -30.54433988 -36.36230938  13.09043137 
       23   2   -31.99883225 -34.90781700  14.54492375 
       24   1   -30.54433988 -33.45332463  15.99941612 
       25   2   -31.99883225 -31.99883225  17.45390850 
       26   2   -29.08984750 -37.81680175  14.54492375 
       27   1   -27.63535513 -36.36230938  15.99941612 
       28   2   -29.08984750 -34.90781700  17.45390850 
       29   3   -36.36230938 -36.36230938  1.45449237 
       30   2   -37.81680175 -34.90781700  2.90898475 
       31   3   -36.36230938 -33.45332463  4.36347712 
       32   2   -37.81680175 -31.99883225  5.81796950 
       33   1   -36.36230938 -30.54433988  7.27246187 
       34   2   -37.81680175 -29.08984750  8.72695425 
       35   1   -36.36230938 -27.63535513  10.18144662 
       36   2   -37.81680175 -26.18086275  11.63593900 
       37   1   -36.36230938 -24.72637038  13.09043137 
       38   2   -37.81680175 -23.27187800  14.54492375 
       39   1   -36.36230938 -21.81738563  15.99941612 
       40   2   -34.90781700 -37.81680175  2.90898475 
       41   3   -33.45332463 -36.36230938  4.36347712 
       42   2   -34.90781700 -34.90781700  5.81796950 
       43   1   -33.45332463 -33.45332463  7.27246187 
       44   2   -34.90781700 -31.99883225  8.72695425 
       45   1   -33.45332463 -30.54433988  10.18144662 
       46   2   -34.90781700 -29.08984750  11.63593900 
       47   1   -33.45332463 -27.63535513  13.09043137 
       48   2   -34.90781700 -26.18086275  14.54492375 
       49   1   -33.45332463 -24.72637038  15.99941612 
       50   2   -34.90781700 -23.27187800  17.45390850 
       51   2   -31.99883225 -37.81680175  5.81796950 
       52   1   -30.54433988 -36.36230938  7.27246187 
       53   2   -31.99883225 -34.90781700  8.72695425 
       54   1   -30.54433988 -33.45332463  10.18144662 
       55   2   -31.99883225 -31.99883225  11.63593900 
       56   1   -30.54433988 -30.54433988  13.09043137 
       57   2   -31.99883225 -29.08984750  14.54492375 
       58   1   -30.54433988 -27.63535513  15.99941612 
       59   2   -31.99883225 -26.18086275  17.45390850 
       60   2   -29.08984750 -37.81680175  8.72695425 
       61   1   -27.63535513 -36.36230938  10.18144662 
       62   2   -29.08984750 -34.90781700  11.63593900 
       63   1   -27.63535513 -33.45332463  13.09043137 
       64   2   -29.08984750 -31.99883225  14.54492375 
       65   1   -27.63535513 -30.54433988  15.99941612 
       66   2   -29.08984750 -29.08984750  17.45390850 
       67   2   -26.18086275 -37.81680175  11.63593900 
       68   1   -24.72637038 -36.36230938  13.09043137 
       69   2   -26.18086275 -34.90781700  14.54492375 
       70   1   -24.72637038 -33.45332463  15.99941612 
       71   2   -26.18086275 -31.99883225  17.45390850 
       72   2   -23.27187800 -37.81680175  14.54492375 
       73   1   -21.81738563 -36.36230938  15.99941612 
       74   2   -23.27187800 -34.90781700  17.45390850 
       75   3   -36.36230938 -36.36230938 -4.36347713 
       76   2   -37.81680175 -34.90781700 -2.90898475 
       77   3   -36.36230938 -33.45332463 -1.45449238 
       78   2   -37.81680175 -31.99883225 -0.00000000 
       79   3   -36.36230938 -30.54433988  1.45449237 
       80   2   -37.81680175 -29.08984750  2.90898475 
       81   3   -36.36230938 -27.63535513  4.36347712 
       82   2   -37.81680175 -26.18086275  5.81796950 
       83   1   -36.36230938 -24.72637038  7.27246187 
       84   2   -37.81680175 -23.27187800  8.72695425 
       85   1   -36.36230938 -21.81738563  10.18144662 
       86   2   -37.81680175 -20.36289325  11.63593900 
       87   1   -36.36230938 -18.90840088  13.09043137 
       88   2   -37.81680175 -17.45390850  14.54492375 
       89   1   -36.36230938 -15.99941613  15.99941612 
       90   2   -34.90781700 -37.81680175 -2.90898475 
       91   3   -33.45332463 -36.36230938 -1.45449238 
       92   2   -34.90781700 -34.90781700 -0.00000000 
       93   3   -33.45332463 -33.45332463  1.45449237 
       94   2   -34.90781700 -31.99883225  2.90898475 
       95   3   -33.45332463 -30.54433988  4.36347712 
       96   2   -34.90781700 -29.08984750  5.81796950 
       97   1   -33.45332463 -27.63535513  7.27246187 
       98   2   -34.90781700 -26.18086275  8.72695425 
       99   1   -33.45332463 -24.72637038  10.18144662 
      100   2   -34.90781700 -23.27187800  11.63593900 
      101   1   -33.45332463 -21.81738563  13.09043137 
      102   2   -34.90781700 -20.36289325  14.54492375 
      103   1   -33.45332463 -18.90840088  15.99941612 
      104   2   -34.90781700 -17.45390850  17.45390850 
      105   2   -31.99883225 -37.81680175 -0.00000000 
      106   3   -30.54433988 -36.36230938  1.45449237 
      107   2   -31.99883225 -34.90781700  2.90898475 
      108   3   -30.54433988 -33.45332463  4.36347712 
      109   2   -31.99883225 -31.99883225  5.81796950 
      110   1   -30.54433988 -30.54433988  7.27246187 
      111   2   -31.99883225 -29.08984750  8.72695425 
      112   1   -30.54433988 -27.63535513  10.18144662 
      113   2   -31.99883225 -26.18086275  11.63593900 
      114   1   -30.54433988 -24.72637038  13.09043137 
      115   2   -31.99883225 -23.27187800  14.54492375 
      116   1   -30.54433988 -21.81738563  15.99941612 
      117   2   -31.99883225 -20.36289325  17.45390850 
      118   2   -29.08984750 -37.81680175  2.90898475 
      119   3   -27.63535513 -36.36230938  4.36347712 
      120   2   -29.08984750 -34.90781700  5.81796950 
      121   1   -27.63535513 -33.45332463  7.27246187 
      122   2   -29.08984750 -31.99883225  8.72695425 
      123   1   -27.63535513 -30.54433988  10.18144662 
      124   2   -29.08984750 -29.08984750  11.63593900 
      125   1   -27.63535513 -27.63535513  13.09043137 
      126   2   -29.08984750 -26.18086275  14.54492375 
      127   1   -27.63535513 -24.72637038  15.99941612 
      128   2   -29.08984750 -23.27187800  17.45390850 
      129   2   -26.18086275 -37.81680175  5.81796950 
      130   1   -24.72637038 -36.36230938  7.27246187 
      131   2   -26.18086275 -34.90781700  8.72695425 
      132   1   -24.72637038 -33.45332463  10.18144662 
      133   2   -26.18086275 -31.99883225  11.63593900 
      134   1   -24.72637038 -30.54433988  13.09043137 
      135   2   -26.18086275 -29.08984750  14.54492375 
      136   1   -24.72637038 -27.63535513  15.99941612 
      137   2   -26.18086275 -26.18086275  17.45390850 
      138   2   -23.27187800 -37.81680175  8.72695425 
      139   1   -21.81738563 -36.36230938  10.18144662 
      140   2   -23.27187800 -34.90781700  11.63593900 
      141   1   -21.81738563 -33.45332463  13.09043137 
      142   2   -23.27187800 -31.99883225  14.54492375 
      143   1   -21.81738563 -30.54433988  15.99941612 
      144   2   -23.27187800 -29.08984750  17.45390850 
      145   2   -20.36289325 -37.81680175  11.63593900 
      146   1   -18.90840088 -36.36230938  13.09043137 
      147   2   -20.36289325 -34.90781700  14.54492375 
      148   1   -18.90840088 -33.45332463  15.99941612 
      149   2   -20.36289325 -31.99883225  17.45390850 
      150   2   -17.45390850 -37.81680175  14.54492375 
      151   1   -15.99941613 -36.36230938  15.99941612 
      152   2   -17.45390850 -34.90781700  17.45390850 
      153   1   -36.36230938 -36.36230938 -10.18144663 
      154   2   -37.81680175 -34.90781700 -8.72695425 
      155   1   -36.36230938 -33.45332463 -7.27246188 
      156   2   -37.81680175 -31.99883225 -5.81796950 
      157   3   -36.36230938 -30.54433988 -4.36347713 
      158   2   -37.81680175 -29.08984750 -2.90898475 
      159   3   -36.36230938 -27.63535513 -1.45449238 
      160   2   -37.81680175 -26.18086275 -0.00000000 
      161   3   -36.36230938 -24.72637038  1.45449237 
      162   2   -37.81680175 -23.27187800  2.90898475 
      163   3   -36.36230938 -21.81738563  4.36347712 
      164   2   -37.81680175 -20.36289325  5.81796950 
      165   1   -36.36230938 -18.90840088  7.27246187 
      166   2   -37.81680175 -17.45390850  8.72695425 
      167   1   -36.36230938 -15.99941613  10.18144662 
      168   2   -37.81680175 -14.54492375  11.63593900 
      169   1   -36.36230938 -13.09043138  13.09043137 
      170   2   -37.81680175 -11.63593900  14.54492375 
      171   1   -36.36230938 -10.18144663  15.99941612 
      172   2   -34.90781700 -37.81680175 -8.72695425 
      173   1   -33.45332463 -36.36230938 -7.27246188 
      174   2   -34.90781700 -34.90781700 -5.81796950 
      175   3   -33.45332463 -33.45332463 -4.36347713 
      176   2   -34.90781700 -31.99883225 -2.90898475 
      177   3   -33.45332463 -30.54433988 -1.45449238 
      178   2   -34.90781700 -29.08984750 -0.00000000 
      179   3   -33.45332463 -27.63535513  1.45449237 
      180   2   -34.90781700 -26.18086275  2.90898475 
      181   3   -33.45332463 -24.72637038  4.36347712 
      182   2   -34.90781700 -23.27187800  5.81796950 
      183   1   -33.45332463 -21.81738563  7.27246187 
      184   2   -34.90781700 -20.36289325  8.72695425 
      185   1   -33.45332463 -18.90840088  10.18144662 
      186   2   -34.90781700 -17.45390850  11.63593900 
      187   1   -33.45332463 -15.99941613  13.09043137 
      188   2   -34.90781700 -14.54492375  14.54492375 
      189   1   -33.45332463 -13.09043138  15.99941612 
      190   2   -34.90781700 -11.63593900  17.45390850 
      191   2   -31.99883225 -37.81680175 -5.81796950 
      192   3   -30.54433988 -36.36230938 -4.36347713 
      193   2   -31.99883225 -34.90781700 -2.90898475 
      194   3   -30.54433988 -33.45332463 -1.45449238 
      195   2   -31.99883225 -31.99883225 -0.00000000 
      196   3   -30.54433988 -30.54433988  1.45449237 
      197   2   -31.99883225 -29.08984750  2.90898475 
      198   3   -30.54433988 -27.63535513  4.36347712 
      199   2   -31.99883225 -26.18086275  5.81796950 
      200   1   -30.54433988 -24.72637038  7.27246187 
      201   2   -31.99883225 -23.27187800  8.72695425 
      202   1   -30.54433988 -21.81738563  10.18144662 
      203   2   -31.99883225 -20.36289325  11.63593900 
      204   1   -30.54433988 -18.90840088  13.09043137 
      205   2   -31.99883225 -17.45390850  14.54492375 
      206   1   -30.54433988 -15.99941613  15.99941612 
      207   2   -31.99883225 -14.54492375  17.45390850 
      208   2   -29.08984750 -37.81680175 -2.90898475 
      209   3   -27.63535513 -36.36230938 -1.45449238 
      210   2   -29.08984750 -34.90781700 -0.00000000 
      211   3   -27.63535513 -33.45332463  1.45449237 
      212   2   -29.08984750 -31.99883225  2.90898475 
      213   3   -27.63535513 -30.54433988  4.36347712 
      214   2   -29.08984750 -29.08984750  5.81796950 
      215   1   -27.63535513 -27.63535513  7.27246187 
      216   2   -29.08984750 -26.18086275  8.72695425 
      217   1   -27.63535513 -24.72637038  10.18144662 
      218   2   -29.08984750 -23.27187800  11.63593900 
      219   1   -27.63535513 -21.81738563  13.09043137 
      220   2   -29.08984750 -20.36289325  14.54492375 
      221   1   -27.63535513 -18.90840088  15.99941612 
      222   2   -29.08984750 -17.45390850  17.45390850 
      223   2   -26.18086275 -37.81680175 -0.00000000 
      224   3   -24.72637038 -36.36230938  1.45449237 
      225   2   -26.18086275 -34.90781700  2.90898475 
      226   3   -24.72637038 -33.45332463  4.36347712 
      227   2   -26.18086275 -31.99883225  5.81796950 
      228   1   -24.72637038 -30.54433988  7.27246187 
      229   2   -26.18086275 -29.08984750  8.72695425 
      230   1   -24.72637038 -27.63535513  10.18144662 
      231   2   -26.18086275 -26.18086275  11.63593900 
      232   1   -24.72637038 -24.72637038  13.09043137 
      233   2   -26.18086275 -23.27187800  14.54492375 
      234   1   -24.72637038 -21.81738563  15.99941612 
      235   2   -26.18086275 -20.36289325  17.45390850 
      236   2   -23.27187800 -37.81680175  2.90898475 
      237   3   -21.81738563 -36.36230938  4.36347712 
      238   2   -23.27187800 -34.90781700  5.81796950 
      239   1   -21.81738563 -33.45332463  7.27246187 
      240   2   -23.27187800 -31.99883225  8.72695425 
      241   1   -21.81738563 -30.54433988  10.18144662 
      242   2   -23.27187800 -29.08984750  11.63593900 
      243   1   -21.81738563 -27.63535513  13.09043137 
      244   2   -23.27187800 -26.18086275  14.54492375 
      245   1   -21.81738563 -24.72637038  15.99941612 
      246   2   -23.27187800 -23.27187800  17.45390850 
      247   2   -20.36289325 -37.81680175  5.81796950 
      248   1   -18.90840088 -36.36230938  7.27246187 
      249   2   -20.36289325 -34.90781700  8.72695425 
      250   1   -18.90840088 -33.45332463  10.18144662 
      251   2   -20.36289325 -31.99883225  11.63593900 
      252   1   -18.90840088 -30.54433988  13.09043137 
      253   2   -20.36289325 -29.08984750  14.54492375 
      254   1   -18.90840088 -27.63535513  15.99941612 
      255   2   -20.36289325 -26.18086275  17.45390850 
      256   2   -17.45390850 -37.81680175  8.72695425 
      257   1   -15.99941613 -36.36230938  10.18144662 
      258   2   -17.45390850 -34.90781700  11.63593900 
      259   1   -15.99941613 -33.45332463  13.09043137 
      260   2   -17.45390850 -31.99883225  14.54492375 
      261   1   -15.99941613 -30.54433988  15.99941612 
      262   2   -17.45390850 -29.08984750  17.45390850 
      263   2   -14.54492375 -37.81680175  11.63593900 
      264   1   -13.09043138 -36.36230938  13.09043137 
      265   2   -14.54492375 -34.90781700  14.54492375 
      266   1   -13.09043138 -33.45332463  15.99941612 
      267   2   -14.54492375 -31.99883225  17.45390850 
      268   2   -11.63593900 -37.81680175  14.54492375 
      269   1   -10.18144663 -36.36230938  15.99941612 
      270   2   -11.63593900 -34.90781700  17.45390850 
      271   1   -36.36230938 -36.36230938 -15.99941613 
      272   2   -37.81680175 -34.90781700 -14.54492375 
      273   1   -36.36230938 -33.45332463 -13.09043138 
      274   2   -37.81680175 -31.99883225 -11.63593900 
      275   1   -36.36230938 -30.54433988 -10.18144663 
      276   2   -37.81680175 -29.08984750 -8.72695425 
      277   1   -36.36230938 -27.63535513 -7.27246188 
      278   2   -37.81680175 -26.18086275 -5.81796950 
      279   3   -36.36230938 -24.72637038 -4.36347713 
      280   2   -37.81680175 -23.27187800 -2.90898475 
      281   3   -36.36230938 -21.81738563 -1.45449238 
      282   2   -37.81680175 -20.36289325 -0.00000000 
      283   3   -36.36230938 -18.90840088  1.45449237 
      284   2   -37.81680175 -17.45390850  2.90898475 
      285   3   -36.36230938 -15.99941613  4.36347712 
      286   2   -37.81680175 -14.54492375  5.81796950 
      287   1   -36.36230938 -13.09043138  7.27246187 
      288   2   -37.81680175 -11.63593900  8.72695425 
      289   1   -36.36230938 -10.18144663  10.18144662 
      290   2   -37.81680175 -8.72695425  11.63593900 
      291   1   -36.36230938 -7.27246188  13.09043137 
      292   2   -37.81680175 -5.81796950  14.54492375 
      293   1   -36.36230938 -4.36347713  15.99941612 
      294   2   -34.90781700 -37.81680175 -14.54492375 
      295   1   -33.45332463 -36.36230938 -13.09043138 
      296   2   -34.90781700 -34.90781700 -11.63593900 
      297   1   -33.45332463 -33.45332463 -10.18144663 
      298   2   -34.90781700 -31.99883225 -8.72695425 
      299   1   -33.45332463 -30.54433988 -7.27246188 
      300   2   -34.90781700 -29.08984750 -5.81796950 
      301   3   -33.45332463 -27.63535513 -4.36347713 
      302   2   -34.90781700 -26.18086275 -2.90898475 
      303   3   -33.45332463 -24.72637038 -1.45449238 
      304   2   -34.90781700 -23.27187800 -0.00000000 
      305   3   -33.45332463 -21.81738563  1.45449237 
      306   2   -34.90781700 -20.36289325  2.90898475 
      307   3   -33.45332463 -18.90840088  4.36347712 
      308   2   -34.90781700 -17.45390850  5.81796950 
      309   1   -33.45332463 -15.99941613  7.27246187 
      310   2   -34.90781700 -14.54492375  8.72695425 
      311   1   -33.45332463 -13.09043138  10.18144662 
      312   2   -34.90781700 -11.63593900  11.63593900 
      313   1   -33.45332463 -10.18144663  13.09043137 
      314   2   -34.90781700 -8.72695425  14.54492375 
      315   1   -33.45332463 -7.27246188  15.99941612 
      316   2   -34.90781700 -5.81796950  17.45390850 
      317   2   -31.99883225 -37.81680175 -11.63593900 
      318   1   -30.54433988 -36.36230938 -10.18144663 
      319   2   -31.99883225 -34.90781700 -8.72695425 
      320   1   -30.54433988 -33.45332463 -7.27246188 
      321   2   -31.99883225 -31.99883225 -5.81796950 
      322   3   -30.54433988 -30.54433988 -4.36347713 
      323   2   -31.99883225 -29.08984750 -2.90898475 
      324   3   -30.54433988 -27.63535513 -1.45449238 
      325   2   -31.99883225 -26.18086275 -0.00000000 
      326   3   -30.54433988 -24.72637038  1.45449237 
      327   2   -31.99883225 -23.27187800  2.90898475 
      328   3   -30.54433988 -21.81738563  4.36347712 
      329   2   -31.99883225 -20.36289325  5.81796950 
      330   1   -30.54433988 -18.90840088  7.27246187 
      331   2   -31.99883225 -17.45390850  8.72695425 
      332   1   -30.54433988 -15.99941613  10.18144662 
      333   2   -31.99883225 -14.54492375  11.63593900 
      334   1   -30.54433988 -13.09043138  13.09043137 
      335   2   -31.99883225 -11.63593900  14.54492375 
      336   1   -30.54433988 -10.18144663  15.99941612 
      337   2   -31.99883225 -8.72695425  17.45390850 
      338   2   -29.08984750 -37.81680175 -8.72695425 
      339   1   -27.63535513 -36.36230938 -7.27246188 
      340   2   -29.08984750 -34.90781700 -5.81796950 
      341   3   -27.63535513 -33.45332463 -4.36347713 
      342   2   -29.08984750 -31.99883225 -2.90898475 
      343   3   -27.63535513 -30.54433988 -1.45449238 
      344   2   -29.08984750 -29.08984750 -0.00000000 
      345   3   -27.63535513 -27.63535513  1.45449237 
      346   2   -29.08984750 -26.18086275  2.90898475 
      347   3   -27.63535513 -24.72637038  4.36347712 
      348   2   -29.08984750 -23.27187800  5.81796950 
      349   1   -27.63535513 -21.81738563  7.27246187 
      350   2   -29.08984750 -20.36289325  8.72695425 
      351   1   -27.63535513 -18.90840088  10.18144662 
      352   2   -29.08984750 -17.45390850  11.63593900 
      353   1   -27.63535513 -15.99941613  13.09043137 
      354   2   -29.08984750 -14.54492375  14.54492375 
      355   1   -27.63535513 -13.09043138  15.99941612 
      356   2   -29.08984750 -11.63593900  17.45390850 
      357   2   -26.18086275 -37.81680175 -5.81796950 
      358   3   -24.72637038 -36.36230938 -4.36347713 
      359   2   -26.18086275 -34.90781700 -2.90898475 
      360   3   -24.72637038 -33.45332463 -1.45449238 
      361   2   -26.18086275 -31.99883225 -0.00000000 
      362   3   -24.72637038 -30.54433988  1.45449237 
      363   2   -26.18086275 -29.08984750  2.90898475 
      364   3   -24.72637038 -27.63535513  4.36347712 
      365   2   -26.18086275 -26.18086275  5.81796950 
      366   1   -24.72637038 -24.72637038  7.27246187 
      367   2   -26.18086275 -23.27187800  8.72695425 
      368   1   -24.72637038 -21.81738563  10.18144662 
      369   2   -26.18086275 -20.36289325  11.63593900 
      370   1   -24.72637038 -18.90840088  13.09043137 
      371   2   -26.18086275 -17.45390850  14.54492375 
      372   1   -24.72637038 -15.99941613  15.99941612 
      373   2   -26.18086275 -14.54492375  17.45390850 
      374   2   -23.27187800 -37.81680175 -2.90898475 
      375   3   -21.81738563 -36.36230938 -1.45449238 
      376   2   -23.27187800 -34.90781700 -0.00000000 
      377   3   -21.81738563 -33.45332463  1.45449237 
      378   2   -23.27187800 -31.99883225  2.90898475 
      379   3   -21.81738563 -30.54433988  4.36347712 
      380   2   -23.27187800 -29.08984750  5.81796950 
      381   1   -21.81738563 -27.63535513  7.27246187 
      382   2   -23.27187800 -26.18086275  8.72695425 
      383   1   -21.81738563 -24.72637038  10.18144662 
      384   2   -23.27187800 -23.27187800  11.63593900 
      385   1   -21.81738563 -21.81738563  13.09043137 
      386   2   -23.27187800 -20.36289325  14.54492375 
      387   1   -21.81738563 -18.90840088  15.99941612 
      388   2   -23.27187800 -17.45390850  17.45390850 
      389   2   -20.36289325 -37.81680175 -0.00000000 
      390   3   -18.90840088 -36.36230938  1.45449237 
      391   2   -20.36289325 -34.90781700  2.90898475 
      392   3   -18.90840088 -33.45332463  4.36347712 
      393   2   -20.36289325 -31.99883225  5.81796950 
      394   1   -18.90840088 -30.54433988  7.27246187 
      395   2   -20.36289325 -29.08984750  8.72695425 
      396   1   -18.90840088 -27.63535513  10.18144662 
      397   2   -20.36289325 -26.18086275  11.63593900 
      398   1   -18.90840088 -24.72637038  13.09043137 
      399   2   -20.36289325 -23.27187800  14.54492375 
      400   1   -18.90840088 -21.81738563  15.99941612 
      401   2   -20.36289325 -20.36289325  17.45390850 
      402   2   -17.45390850 -37.81680175  2.90898475 
      403   3   -15.99941613 -36.36230938  4.36347712 
      404   2   -17.45390850 -34.90781700  5.81796950 
      405   1   -15.99941613 -33.45332463  7.27246187 
      406   2   -17.45390850 -31.99883225  8.72695425 
      407   1   -15.99941613 -30.54433988  10.18144662 
      408   2   -17.45390850 -29.08984750  11.63593900 
      409   1   -15.99941613 -27.63535513  13.09043137 
      410   2   -17.45390850 -26.18086275  14.54492375 
      411   1   -15.99941613 -24.72637038  15.99941612 
      412   2   -17.45390850 -23.27187800  17.45390850 
      413   2   -14.54492375 -37.81680175  5.81796950 
      414   1   -13.09043138 -36.36230938  7.27246187 
      415   2   -14.54492375 -34.90781700  8.72695425 
      416   1   -13.09043138 -33.45332463  10.18144662 
      417   2   -14.54492375 -31.99883225  11.63593900 
      418   1   -13.09043138 -30.54433988  13.09043137 
      419   2   -14.54492375 -29.08984750  14.54492375 
      420   1   -13.09043138 -27.63535513  15.99941612 
      421   2   -14.54492375 -26.18086275  17.45390850 
      422   2   -11.63593900 -37.81680175  8.72695425 
      423   1   -10.18144663 -36.36230938  10.18144662 
      424   2   -11.63593900 -34.90781700  11.63593900 
      425   1   -10.18144663 -33.45332463  13.09043137 
      426   2   -11.63593900 -31.99883225  14.54492375 
      427   1   -10.18144663 -30.54433988  15.99941612 
      428   2   -11.63593900 -29.08984750  17.45390850 
      429   2   -8.72695425 -37.81680175  11.63593900 
      430   1   -7.27246188 -36.36230938  13.09043137 
      431   2   -8.72695425 -34.90781700  14.54492375 
      432   1   -7.27246188 -33.45332463  15.99941612 
      433   2   -8.72695425 -31.99883225  17.45390850 
      434   2   -5.81796950 -37.81680175  14.54492375 
      435   1   -4.36347713 -36.36230938  15.99941612 
      436   2   -5.81796950 -34.90781700  17.45390850 
      437   1   -36.36230938 -30.54433988 -15.99941613 
      438   2   -37.81680175 -29.08984750 -14.54492375 
      439   1   -36.36230938 -27.63535513 -13.09043138 
      440   2   -37.81680175 -26.18086275 -11.63593900 
      441   1   -36.36230938 -24.72637038 -10.18144663 
      442   2   -37.81680175 -23.27187800 -8.72695425 
      443   1   -36.36230938 -21.81738563 -7.27246188 
      444   2   -37.81680175 -20.36289325 -5.81796950 
      445   3   -36.36230938 -18.90840088 -4.36347713 
      446   2   -37.81680175 -17.45390850 -2.90898475 
      447   3   -36.36230938 -15.99941613 -1.45449238 
      448   2   -37.81680175 -14.54492375 -0.00000000 
      449   3   -36.36230938 -13.09043138  1.45449237 
      450   2   -37.81680175 -11.63593900  2.90898475 
      451   3   -36.36230938 -10.18144663  4.36347712 
      452   2   -37.81680175 -8.72695425  5.81796950 
      453   1   -36.36230938 -7.27246188  7.27246187 
      454   2   -37.81680175 -5.81796950  8.72695425 
      455   1   -36.36230938 -4.36347713  10.18144662 
      456   2   -37.81680175 -2.90898475  11.63593900 
      457   1   -36.36230938 -1.45449238  13.09043137 
      458   2   -37.81680175 -0.00000000  14.54492375 
      459   1   -36.36230938  1.45449237  15.99941612 
      460   2   -34.90781700 -34.90781700 -17.45390850 
      461   1   -33.45332463 -33.45332463 -15.99941613 
      462   2   -34.90781700 -31.99883225 -14.54492375 
      463   1   -33.45332463 -30.54433988 -13.09043138 
      464   2   -34.90781700 -29.08984750 -11.63593900 
      465   1   -33.45332463 -27.63535513 -10.18144663 
      466   2   -34.90781700 -26.18086275 -8.72695425 
      467   1   -33.45332463 -24.72637038 -7.27246188 
      468   2   -34.90781700 -23.27187800 -5.81796950 
      469   3   -33.45332463 -21.81738563 -4.36347713 
      470   2   -34.90781700 -20.36289325 -2.90898475 
      471   3   -33.45332463 -18.90840088 -1.45449238 
      472   2   -34.90781700 -17.45390850 -0.00000000 
      473   3   -33.45332463 -15.99941613  1.45449237 
      474   2   -34.90781700 -14.54492375  2.90898475 
      475   3   -33.45332463 -13.09043138  4.36347712 
      476   2   -34.90781700 -11.63593900  5.81796950 
      477   1   -33.45332463 -10.18144663  7.27246187 
      478   2   -34.90781700 -8.72695425  8.72695425 
      479   1   -33.45332463 -7.27246188  10.18144662 
      480   2   -34.90781700 -5.81796950  11.63593900 
      481   1   -33.45332463 -4.36347713  13.09043137 
      482   2   -34.90781700 -2.90898475  14.54492375 
      483   1   -33.45332463 -1.45449238  15.99941612 
      484   2   -34.90781700 -0.00000000  17.45390850 
      485   1   -30.54433988 -36.36230938 -15.99941613 
      486   2   -31.99883225 -34.90781700 -14.54492375 
      487   1   -30.54433988 -33.45332463 -13.09043138 
      488   2   -31.99883225 -31.99883225 -11.63593900 
      489   1   -30.54433988 -30.54433988 -10.18144663 
      490   2   -31.99883225 -29.08984750 -8.72695425 
      491   1   -30.54433988 -27.63535513 -7.27246188 
      492   2   -31.99883225 -26.18086275 -5.81796950 
      493   3   -30.54433988 -24.72637038 -4.36347713 
      494   2   -31.99883225 -23.27187800 -2.90898475 
      495   3   -30.54433988 -21.81738563 -1.45449238 
      496   2   -31.99883225 -20.36289325 -0.00000000 
      497   3   -30.54433988 -18.90840088  1.45449237 
      498   2   -31.99883225 -17.45390850  2.90898475 
      499   3   -30.54433988 -15.99941613  4.36347712 
      500   2   -31.99883225 -14.54492375  5.81796950 
      501   1   -30.54433988 -13.09043138  7.27246187 
      502   2   -31.99883225 -11.63593900  8.72695425 
      503   1   -30.54433988 -10.18144663  10.18144662 
      504   2   -31.99883225 -8.72695425  11.63593900 
      505   1   -30.54433988 -7.27246188  13.09043137 
      506   2   -31.99883225 -5.81796950  14.54492375 
      507   1   -30.54433988 -4.36347713  15.99941612 
      508   2   -31.99883225 -2.90898475  17.45390850 
      509   2   -29.08984750 -37.81680175 -14.54492375 
      510   1   -27.63535513 -36.36230938 -13.09043138 
      511   2   -29.08984750 -34.90781700 -11.63593900 
      512   1   -27.63535513 -33.45332463 -10.18144663 
      513   2   -29.08984750 -31.99883225 -8.72695425 
      514   1   -27.63535513 -30.54433988 -7.27246188 
      515   2   -29.08984750 -29.08984750 -5.81796950 
      516   3   -27.63535513 -27.63535513 -4.36347713 
      517   2   -29.08984750 -26.18086275 -2.90898475 
      518   3   -27.63535513 -24.72637038 -1.45449238 
      519   2   -29.08984750 -23.27187800 -0.00000000 
      520   3   -27.63535513 -21.81738563  1.45449237 
      521   2   -29.08984750 -20.36289325  2.90898475 
      522   3   -27.63535513 -18.90840088  4.36347712 
      523   2   -29.08984750 -17.45390850  5.81796950 
      524   1   -27.63535513 -15.99941613  7.27246187 
      525   2   -29.08984750 -14.54492375  8.72695425 
      526   1   -27.63535513 -13.09043138  10.18144662 
      527   2   -29.08984750 -11.63593900  11.63593900 
      528   1   -27.63535513 -10.18144663  13.09043137 
      529   2   -29.08984750 -8.72695425  14.54492375 
      530   1   -27.63535513 -7.27246188  15.99941612 
      531   2   -29.08984750 -5.81796950  17.45390850 
      532   2   -26.18086275 -37.81680175 -11.63593900 
      533   1   -24.72637038 -36.36230938 -10.18144663 
      534   2   -26.18086275 -34.90781700 -8.72695425 
      535   1   -24.72637038 -33.45332463 -7.27246188 
      536   2   -26.18086275 -31.99883225 -5.81796950 
      537   3   -24.72637038 -30.54433988 -4.36347713 