LAMMPS configuration data file

  2131 atoms

  4 atom types

  -50.279798  50.279798  xlo xhi
  -50.279798  50.279798  ylo yhi
  -26.046590  26.046590  zlo zhi

 Masses

  1   78.960
  2   112.411
  3   1.000
  4   1.000

 Atoms

        1   1   -28.76829792 -28.76829792  1.51116989 
        2   2   -30.27959781 -27.25619803  3.02303978 
        3   1   -28.76829792 -25.74419814  4.53510967 
        4   2   -27.25619803 -30.27959781  3.02303978 
        5   1   -25.74419814 -28.76829792  4.53510967 
        6   2   -27.25619803 -27.25619803  6.04640956 
        7   1   -28.76849792 -28.76849792 -4.53533968 
        8   2   -30.27979781 -27.25639804 -3.02320978 
        9   1   -28.76819792 -25.74439814 -1.51133989 
       10   2   -30.27949781 -24.23219825 -0.00000981 
       11   1   -28.76819792 -22.71839836  1.51126989 
       12   2   -30.27969782 -21.20399847  3.02333978 
       13   1   -28.76829792 -19.68939858  4.53508967 
       14   2   -27.25639804 -30.27979781 -3.02320978 
       15   1   -25.74439814 -28.76819792 -1.51133989 
       16   2   -27.25629803 -27.25629803  0.00001133 
       17   1   -25.74429814 -25.74429814  1.51126989 
       18   2   -27.25629803 -24.23219825  3.02310978 
       19   1   -25.74429814 -22.71849836  4.53494967 
       20   2   -27.25649803 -21.20399847  6.04651956 
       21   2   -24.23219825 -30.27949781 -0.00000981 
       22   1   -22.71839836 -28.76819792  1.51126989 
       23   2   -24.23219825 -27.25629803  3.02310978 
       24   1   -22.71849836 -25.74429814  4.53494967 
       25   2   -24.23219825 -24.23219825  6.04637956 
       26   2   -21.20399847 -30.27969782  3.02333978 
       27   1   -19.68939858 -28.76829792  4.53508967 
       28   2   -21.20399847 -27.25649803  6.04651956 
       29   1   -28.76829792 -22.71859836 -4.53509967 
       30   2   -30.27969782 -21.20399847 -3.02332978 
       31   1   -28.76809792 -19.68949858 -1.51126989 
       32   2   -30.27959781 -18.17489869 -0.00000007 
       33   1   -28.76809792 -16.66029880  1.51126989 
       34   2   -30.27969782 -15.14579891  3.02332978 
       35   1   -28.76829792 -13.63109901  4.53508967 
       36   2   -27.25639804 -27.25639804 -6.04658957 
       37   1   -25.74439814 -25.74439814 -4.53501967 
       38   2   -27.25629803 -24.23219825 -3.02312978 
       39   1   -25.74429814 -22.71849836 -1.51122989 
       40   2   -27.25629803 -21.20399847  0.00000111 
       41   1   -25.74429814 -19.68949858  1.51123989 
       42   2   -27.25639804 -18.17489869  3.02316978 
       43   1   -25.74429814 -16.66029880  4.53493967 
       44   2   -27.25649803 -15.14579891  6.04651956 
       45   1   -22.71859836 -28.76829792 -4.53509967 
       46   2   -24.23219825 -27.25629803 -3.02312978 
       47   1   -22.71849836 -25.74429814 -1.51122989 
       48   2   -24.23229825 -24.23229825 -0.00000664 
       49   1   -22.71849836 -22.71849836  1.51118989 
       50   2   -24.23229825 -21.20399847  3.02321978 
       51   1   -22.71849836 -19.68949858  4.53487967 
       52   2   -24.23219825 -18.17489869  6.04642956 
       53   2   -21.20399847 -30.27969782 -3.02332978 
       54   1   -19.68949858 -28.76809792 -1.51126989 
       55   2   -21.20399847 -27.25629803  0.00000111 
       56   1   -19.68949858 -25.74429814  1.51123989 
       57   2   -21.20399847 -24.23229825  3.02321978 
       58   1   -19.68949858 -22.71849836  4.53487967 
       59   2   -21.20399847 -21.20399847  6.04646956 
       60   2   -18.17489869 -30.27959781 -0.00000007 
       61   1   -16.66029880 -28.76809792  1.51126989 
       62   2   -18.17489869 -27.25639804  3.02316978 
       63   1   -16.66029880 -25.74429814  4.53493967 
       64   2   -18.17489869 -24.23219825  6.04642956 
       65   2   -15.14579891 -30.27969782  3.02332978 
       66   1   -13.63109901 -28.76829792  4.53508967 
       67   2   -15.14579891 -27.25649803  6.04651956 
       68   1   -28.76829792 -16.66039880 -4.53508967 
       69   2   -30.27969782 -15.14569891 -3.02332978 
       70   1   -28.76809792 -13.63119902 -1.51126989 
       71   2   -30.27959781 -12.11659912  0.00000000 
       72   1   -28.76809792 -10.60199923  1.51126989 
       73   2   -30.27969782 -9.08745934  3.02332978 
       74   1   -28.76829792 -7.57275945  4.53508967 
       75   2   -27.25649803 -21.20399847 -6.04651956 
       76   1   -25.74429814 -19.68949858 -4.53493967 
       77   2   -27.25639804 -18.17489869 -3.02316978 
       78   1   -25.74429814 -16.66029880 -1.51123989 
       79   2   -27.25629803 -15.14569891  0.00000000 
       80   1   -25.74429814 -13.63119902  1.51123989 
       81   2   -27.25639804 -12.11659912  3.02316978 
       82   1   -25.74429814 -10.60199923  4.53493967 
       83   2   -27.25649803 -9.08745934  6.04651956 
       84   2   -24.23229825 -24.23229825 -6.04637956 
       85   1   -22.71849836 -22.71849836 -4.53488967 
       86   2   -24.23229825 -21.20409847 -3.02321978 
       87   1   -22.71849836 -19.68949858 -1.51118989 
       88   2   -24.23229825 -18.17489869  0.00000002 
       89   1   -22.71849836 -16.66029880  1.51118989 
       90   2   -24.23229825 -15.14569891  3.02321978 
       91   1   -22.71849836 -13.63119902  4.53487967 
       92   2   -24.23219825 -12.11659912  6.04642956 
       93   2   -21.20399847 -27.25649803 -6.04651956 
       94   1   -19.68949858 -25.74429814 -4.53493967 
       95   2   -21.20409847 -24.23229825 -3.02321978 
       96   1   -19.68949858 -22.71849836 -1.51118989 
       97   2   -21.20399847 -21.20399847 -0.00000051 
       98   1   -19.68949858 -19.68949858  1.51119989 
       99   2   -21.20399847 -18.17489869  3.02327978 
      100   1   -19.68949858 -16.66029880  4.53486967 
      101   2   -21.20399847 -15.14579891  6.04647957 
      102   1   -16.66039880 -28.76829792 -4.53508967 
      103   2   -18.17489869 -27.25639804 -3.02316978 
      104   1   -16.66029880 -25.74429814 -1.51123989 
      105   2   -18.17489869 -24.23229825  0.00000002 
      106   1   -16.66029880 -22.71849836  1.51118989 
      107   2   -18.17489869 -21.20399847  3.02327978 
      108   1   -16.66029880 -19.68949858  4.53486967 
      109   2   -18.17489869 -18.17489869  6.04647957 
      110   2   -15.14569891 -30.27969782 -3.02332978 
      111   1   -13.63119902 -28.76809792 -1.51126989 
      112   2   -15.14569891 -27.25629803  0.00000000 
      113   1   -13.63119902 -25.74429814  1.51123989 
      114   2   -15.14569891 -24.23229825  3.02321978 
      115   1   -13.63119902 -22.71849836  4.53487967 
      116   2   -15.14579891 -21.20399847  6.04647957 
      117   2   -12.11659912 -30.27959781  0.00000000 
      118   1   -10.60199923 -28.76809792  1.51126989 
      119   2   -12.11659912 -27.25639804  3.02316978 
      120   1   -10.60199923 -25.74429814  4.53493967 
      121   2   -12.11659912 -24.23219825  6.04642956 
      122   2   -9.08745934 -30.27969782  3.02332978 
      123   1   -7.57275945 -28.76829792  4.53508967 
      124   2   -9.08745934 -27.25649803  6.04651956 
      125   1   -28.76829792 -10.60209923 -4.53508967 
      126   2   -30.27969782 -9.08743935 -3.02332978 
      127   1   -28.76809792 -7.57289945 -1.51126989 
      128   2   -30.27959781 -6.05829956  0.00000000 
      129   1   -28.76809792 -4.54369967  1.51126989 
      130   2   -30.27969782 -3.02915978  3.02332978 
      131   1   -28.76829792 -1.51445989  4.53508967 
      132   2   -27.25649803 -15.14569891 -6.04651956 
      133   1   -25.74429814 -13.63119902 -4.53493967 
      134   2   -27.25639804 -12.11659912 -3.02316978 
      135   1   -25.74429814 -10.60199923 -1.51123989 
      136   2   -27.25629803 -9.08744934  0.00000000 
      137   1   -25.74429814 -7.57285945  1.51123989 
      138   2   -27.25639804 -6.05827956  3.02316978 
      139   1   -25.74429814 -4.54369967  4.53493967 
      140   2   -27.25649803 -3.02915978  6.04651956 
      141   2   -24.23219825 -18.17489869 -6.04642956 
      142   1   -22.71849836 -16.66029880 -4.53487967 
      143   2   -24.23229825 -15.14579891 -3.02321978 
      144   1   -22.71849836 -13.63119902 -1.51118989 
      145   2   -24.23229825 -12.11659912  0.00000000 
      146   1   -22.71849836 -10.60199923  1.51118989 
      147   2   -24.23229825 -9.08742934  3.02321978 
      148   1   -22.71849836 -7.57286945  4.53487967 
      149   2   -24.23219825 -6.05826956  6.04642956 
      150   2   -21.20399847 -21.20399847 -6.04646956 
      151   1   -19.68949858 -19.68949858 -4.53486967 
      152   2   -21.20399847 -18.17489869 -3.02327978 
      153   1   -19.68949858 -16.66029880 -1.51119989 
      154   2   -21.20399847 -15.14569891  0.00000000 
      155   1   -19.68949858 -13.63119902  1.51119989 
      156   2   -21.20399847 -12.11659912  3.02327978 
      157   1   -19.68949858 -10.60199923  4.53486967 
      158   2   -21.20399847 -9.08744934  6.04647957 
      159   2   -18.17489869 -24.23219825 -6.04642956 
      160   1   -16.66029880 -22.71849836 -4.53487967 
      161   2   -18.17489869 -21.20399847 -3.02327978 
      162   1   -16.66029880 -19.68949858 -1.51119989 
      163   2   -18.17489869 -18.17489869  0.00000001 
      164   1   -16.66029880 -16.66029880  1.51119989 
      165   2   -18.17489869 -15.14569891  3.02327978 
      166   1   -16.66029880 -13.63119902  4.53486967 
      167   2   -18.17489869 -12.11659912  6.04647957 
      168   2   -15.14569891 -27.25649803 -6.04651956 
      169   1   -13.63119902 -25.74429814 -4.53493967 
      170   2   -15.14579891 -24.23229825 -3.02321978 
      171   1   -13.63119902 -22.71849836 -1.51118989 
      172   2   -15.14569891 -21.20399847  0.00000000 
      173   1   -13.63119902 -19.68949858  1.51119989 
      174   2   -15.14569891 -18.17489869  3.02327978 
      175   1   -13.63119902 -16.66029880  4.53486967 
      176   2   -15.14579891 -15.14579891  6.04647957 
      177   1   -10.60209923 -28.76829792 -4.53508967 
      178   2   -12.11659912 -27.25639804 -3.02316978 
      179   1   -10.60199923 -25.74429814 -1.51123989 
      180   2   -12.11659912 -24.23229825  0.00000000 
      181   1   -10.60199923 -22.71849836  1.51118989 
      182   2   -12.11659912 -21.20399847  3.02327978 
      183   1   -10.60199923 -19.68949858  4.53486967 
      184   2   -12.11659912 -18.17489869  6.04647957 
      185   2   -9.08743935 -30.27969782 -3.02332978 
      186   1   -7.57289945 -28.76809792 -1.51126989 
      187   2   -9.08744934 -27.25629803  0.00000000 
      188   1   -7.57285945 -25.74429814  1.51123989 
      189   2   -9.08742934 -24.23229825  3.02321978 
      190   1   -7.57286945 -22.71849836  4.53487967 
      191   2   -9.08744934 -21.20399847  6.04647957 
      192   2   -6.05829956 -30.27959781  0.00000000 
      193   1   -4.54369967 -28.76809792  1.51126989 
      194   2   -6.05827956 -27.25639804  3.02316978 
      195   1   -4.54369967 -25.74429814  4.53493967 
      196   2   -6.05826956 -24.23219825  6.04642956 
      197   2   -3.02915978 -30.27969782  3.02332978 
      198   1   -1.51445989 -28.76829792  4.53508967 
      199   2   -3.02915978 -27.25649803  6.04651956 
      200   1   -28.76829792 -4.54383967 -4.53508967 
      201   2   -30.27969782 -3.02913978 -3.02332978 
      202   1   -28.76809792 -1.51459989 -1.51126989 
      203   2   -30.27959781 -0.00000000 -0.00000000 
      204   1   -28.76809792  1.51459989  1.51126989 
      205   2   -30.27969782  3.02913978  3.02332978 
      206   1   -28.76829792  4.54383967  4.53508967 
      207   2   -27.25649803 -9.08743935 -6.04651956 
      208   1   -25.74429814 -7.57289945 -4.53493967 
      209   2   -27.25639804 -6.05831956 -3.02316978 
      210   1   -25.74429814 -4.54373967 -1.51123989 
      211   2   -27.25629803 -3.02914978  0.00000000 
      212   1   -25.74429814 -1.51455989  1.51123989 
      213   2   -27.25639804  0.00001612  3.02316978 
      214   1   -25.74429814  1.51459989  4.53493967 
      215   2   -27.25649803  3.02913978  6.04651956 
      216   2   -24.23219825 -12.11659912 -6.04642956 
      217   1   -22.71849836 -10.60199923 -4.53487967 
      218   2   -24.23229825 -9.08746934 -3.02321978 
      219   1   -22.71849836 -7.57287945 -1.51118989 
      220   2   -24.23229825 -6.05829956  0.00000000 
      221   1   -22.71849836 -4.54371967  1.51118989 
      222   2   -24.23229825 -3.02912978  3.02321978 
      223   1   -22.71849836 -1.51456989  4.53487967 
      224   2   -24.23219825  0.00002609  6.04642956 
      225   2   -21.20399847 -15.14569891 -6.04647957 
      226   1   -19.68949858 -13.63119902 -4.53486967 
      227   2   -21.20399847 -12.11659912 -3.02327978 
      228   1   -19.68949858 -10.60199923 -1.51119989 
      229   2   -21.20399847 -9.08744934 -0.00000000 
      230   1   -19.68949858 -7.57287945  1.51119989 
      231   2   -21.20399847 -6.05829956  3.02327978 
      232   1   -19.68949858 -4.54372967  4.53486967 
      233   2   -21.20399847 -3.02914978  6.04647957 
      234   2   -18.17489869 -18.17489869 -6.04647957 
      235   1   -16.66029880 -16.66029880 -4.53486967 
      236   2   -18.17489869 -15.14579891 -3.02327978 
      237   1   -16.66029880 -13.63119902 -1.51119989 
      238   2   -18.17489869 -12.11659912  0.00000000 
      239   1   -16.66029880 -10.60199923  1.51119989 
      240   2   -18.17489869 -9.08744934  3.02327978 
      241   1   -16.66029880 -7.57287945  4.53486967 
      242   2   -18.17489869 -6.05829956  6.04647957 
      243   2   -15.14569891 -21.20399847 -6.04647957 
      244   1   -13.63119902 -19.68949858 -4.53486967 
      245   2   -15.14579891 -18.17489869 -3.02327978 
      246   1   -13.63119902 -16.66029880 -1.51119989 
      247   2   -15.14569891 -15.14569891  0.00000000 
      248   1   -13.63119902 -13.63119902  1.51119989 
      249   2   -15.14569891 -12.11659912  3.02327978 
      250   1   -13.63119902 -10.60199923  4.53486967 
      251   2   -15.14579891 -9.08744934  6.04647957 
      252   2   -12.11659912 -24.23219825 -6.04642956 
      253   1   -10.60199923 -22.71849836 -4.53487967 
      254   2   -12.11659912 -21.20399847 -3.02327978 
      255   1   -10.60199923 -19.68949858 -1.51119989 
      256   2   -12.11659912 -18.17489869  0.00000000 
      257   1   -10.60199923 -16.66029880  1.51119989 
      258   2   -12.11659912 -15.14569891  3.02327978 
      259   1   -10.60199923 -13.63119902  4.53486967 
      260   2   -12.11659912 -12.11659912  6.04647957 
      261   2   -9.08743935 -27.25649803 -6.04651956 
      262   1   -7.57289945 -25.74429814 -4.53493967 
      263   2   -9.08746934 -24.23229825 -3.02321978 
      264   1   -7.57287945 -22.71849836 -1.51118989 
      265   2   -9.08744934 -21.20399847 -0.00000000 
      266   1   -7.57287945 -19.68949858  1.51119989 
      267   2   -9.08744934 -18.17489869  3.02327978 
      268   1   -7.57287945 -16.66029880  4.53486967 
      269   2   -9.08744934 -15.14579891  6.04647957 
      270   1   -4.54383967 -28.76829792 -4.53508967 
      271   2   -6.05831956 -27.25639804 -3.02316978 
      272   1   -4.54373967 -25.74429814 -1.51123989 
      273   2   -6.05829956 -24.23229825  0.00000000 
      274   1   -4.54371967 -22.71849836  1.51118989 
      275   2   -6.05829956 -21.20399847  3.02327978 
      276   1   -4.54372967 -19.68949858  4.53486967 
      277   2   -6.05829956 -18.17489869  6.04647957 
      278   2   -3.02913978 -30.27969782 -3.02332978 
      279   1   -1.51459989 -28.76809792 -1.51126989 
      280   2   -3.02914978 -27.25629803  0.00000000 
      281   1   -1.51455989 -25.74429814  1.51123989 
      282   2   -3.02912978 -24.23229825  3.02321978 
      283   1   -1.51456989 -22.71849836  4.53487967 
      284   2   -3.02914978 -21.20399847  6.04647957 
      285   2    0.00000000 -30.27959781  0.00000000 
      286   1    1.51459989 -28.76809792  1.51126989 
      287   2    0.00001612 -27.25639804  3.02316978 
      288   1    1.51459989 -25.74429814  4.53493967 
      289   2    0.00002609 -24.23219825  6.04642956 
      290   2    3.02913978 -30.27969782  3.02332978 
      291   1    4.54383967 -28.76829792  4.53508967 
      292   2    3.02913978 -27.25649803  6.04651956 
      293   1   -28.76829792  1.51445989 -4.53508967 
      294   2   -30.27969782  3.02915978 -3.02332978 
      295   1   -28.76809792  4.54369967 -1.51126989 
      296   2   -30.27959781  6.05829956  0.00000000 
      297   1   -28.76809792  7.57289945  1.51126989 
      298   2   -30.27969782  9.08743935  3.02332978 
      299   1   -28.76829792  10.60209923  4.53508967 
      300   2   -27.25649803 -3.02913978 -6.04651956 
      301   1   -25.74429814 -1.51459989 -4.53493967 
      302   2   -27.25639804 -0.00001612 -3.02316978 
      303   1   -25.74429814  1.51455989 -1.51123989 
      304   2   -27.25629803  3.02914978 -0.00000000 
      305   1   -25.74429814  4.54373967  1.51123989 
      306   2   -27.25639804  6.05831956  3.02316978 
      307   1   -25.74429814  7.57289945  4.53493967 
      308   2   -27.25649803  9.08743935  6.04651956 
      309   2   -24.23219825 -6.05832956 -6.04642956 
      310   1   -22.71849836 -4.54372967 -4.53487967 
      311   2   -24.23229825 -3.02916978 -3.02321978 
      312   1   -22.71849836 -1.51457989 -1.51118989 
      313   2   -24.23229825 -0.00000000  0.00000000 
      314   1   -22.71849836  1.51457989  1.51118989 
      315   2   -24.23229825  3.02916978  3.02321978 
      316   1   -22.71849836  4.54372967  4.53487967 
      317   2   -24.23219825  6.05832956  6.04642956 
      318   2   -21.20399847 -9.08744934 -6.04647957 
      319   1   -19.68949858 -7.57286945 -4.53486967 
      320   2   -21.20399847 -6.05829956 -3.02327978 
      321   1   -19.68949858 -4.54371967 -1.51119989 
      322   2   -21.20399847 -3.02914978  0.00000000 
      323   1   -19.68949858 -1.51457989  1.51119989 
      324   2   -21.20399847 -0.00000202  3.02327978 
      325   1   -19.68949858  1.51456989  4.53486967 
      326   2   -21.20399847  3.02914978  6.04647957 
      327   2   -18.17489869 -12.11659912 -6.04647957 
      328   1   -16.66029880 -10.60199923 -4.53486967 
      329   2   -18.17489869 -9.08744934 -3.02327978 
      330   1   -16.66029880 -7.57287945 -1.51119989 
      331   2   -18.17489869 -6.05829956 -0.00000000 
      332   1   -16.66029880 -4.54371967  1.51119989 
      333   2   -18.17489869 -3.02914978  3.02327978 
      334   1   -16.66029880 -1.51457989  4.53486967 
      335   2   -18.17489869 -0.00000016  6.04647957 
      336   2   -15.14569891 -15.14569891 -6.04647957 
      337   1   -13.63119902 -13.63119902 -4.53486967 
      338   2   -15.14569891 -12.11659912 -3.02327978 
      339   1   -13.63119902 -10.60199923 -1.51119989 
      340   2   -15.14569891 -9.08744934 -0.00000000 
      341   1   -13.63119902 -7.57286945  1.51119989 
      342   2   -15.14569891 -6.05829956  3.02327978 
      343   1   -13.63119902 -4.54372967  4.53486967 
      344   2   -15.14579891 -3.02914978  6.04647957 
      345   2   -12.11659912 -18.17489869 -6.04647957 
      346   1   -10.60199923 -16.66029880 -4.53486967 
      347   2   -12.11659912 -15.14569891 -3.02327978 
      348   1   -10.60199923 -13.63119902 -1.51119989 
      349   2   -12.11659912 -12.11659912  0.00000000 
      350   1   -10.60199923 -10.60199923  1.51119989 
      351   2   -12.11659912 -9.08744934  3.02327978 
      352   1   -10.60199923 -7.57286945  4.53486967 
      353   2   -12.11659912 -6.05829956  6.04647957 
      354   2   -9.08744934 -21.20399847 -6.04647957 
      355   1   -7.57286945 -19.68949858 -4.53486967 
      356   2   -9.08744934 -18.17489869 -3.02327978 
      357   1   -7.57287945 -16.66029880 -1.51119989 
      358   2   -9.08744934 -15.14569891 -0.00000000 
      359   1   -7.57286945 -13.63119902  1.51119989 
      360   2   -9.08744934 -12.11659912  3.02327978 
      361   1   -7.57286945 -10.60199923  4.53486967 
      362   2   -9.08744934 -9.08744934  6.04647957 
      363   2   -6.05832956 -24.23219825 -6.04642956 
      364   1   -4.54372967 -22.71849836 -4.53487967 
      365   2   -6.05829956 -21.20399847 -3.02327978 
      366   1   -4.54371967 -19.68949858 -1.51119989 
      367   2   -6.05829956 -18.17489869 -0.00000000 
      368   1   -4.54371967 -16.66029880  1.51119989 
      369   2   -6.05829956 -15.14569891  3.02327978 
      370   1   -4.54372967 -13.63119902  4.53486967 
      371   2   -6.05829956 -12.11659912  6.04647957 
      372   2   -3.02913978 -27.25649803 -6.04651956 
      373   1   -1.51459989 -25.74429814 -4.53493967 
      374   2   -3.02916978 -24.23229825 -3.02321978 
      375   1   -1.51457989 -22.71849836 -1.51118989 
      376   2   -3.02914978 -21.20399847  0.00000000 
      377   1   -1.51457989 -19.68949858  1.51119989 
      378   2   -3.02914978 -18.17489869  3.02327978 
      379   1   -1.51457989 -16.66029880  4.53486967 
      380   2   -3.02914978 -15.14579891  6.04647957 
      381   1    1.51445989 -28.76829792 -4.53508967 
      382   2   -0.00001612 -27.25639804 -3.02316978 
      383   1    1.51455989 -25.74429814 -1.51123989 
      384   2    0.00000000 -24.23229825  0.00000000 
      385   1    1.51457989 -22.71849836  1.51118989 
      386   2   -0.00000202 -21.20399847  3.02327978 
      387   1    1.51456989 -19.68949858  4.53486967 
      388   2   -0.00000016 -18.17489869  6.04647957 
      389   2    3.02915978 -30.27969782 -3.02332978 
      390   1    4.54369967 -28.76809792 -1.51126989 
      391   2    3.02914978 -27.25629803 -0.00000000 
      392   1    4.54373967 -25.74429814  1.51123989 
      393   2    3.02916978 -24.23229825  3.02321978 
      394   1    4.54372967 -22.71849836  4.53487967 
      395   2    3.02914978 -21.20399847  6.04647957 
      396   2    6.05829956 -30.27959781 -0.00000000 
      397   1    7.57289945 -28.76809792  1.51126989 
      398   2    6.05831956 -27.25639804  3.02316978 
      399   1    7.57289945 -25.74429814  4.53493967 
      400   2    6.05832956 -24.23219825  6.04642956 
      401   2    9.08743935 -30.27969782  3.02332978 
      402   1    10.60209923 -28.76829792  4.53508967 
      403   2    9.08743935 -27.25649803  6.04651956 
      404   1   -28.76829792  7.57275945 -4.53508967 
      405   2   -30.27969782  9.08745934 -3.02332978 
      406   1   -28.76809792  10.60199923 -1.51126989 
      407   2   -30.27959781  12.11659912 -0.00000000 
      408   1   -28.76809792  13.63119902  1.51126989 
      409   2   -30.27969782  15.14569891  3.02332978 
      410   1   -28.76829792  16.66039880  4.53508967 
      411   2   -27.25649803  3.02915978 -6.04651956 
      412   1   -25.74429814  4.54369967 -4.53493967 
      413   2   -27.25639804  6.05827956 -3.02316978 
      414   1   -25.74429814  7.57285945 -1.51123989 
      415   2   -27.25629803  9.08744934 -0.00000000 
      416   1   -25.74429814  10.60199923  1.51123989 
      417   2   -27.25639804  12.11659912  3.02316978 
      418   1   -25.74429814  13.63119902  4.53493967 
      419   2   -27.25649803  15.14569891  6.04651956 
      420   2   -24.23219825 -0.00002609 -6.04642956 
      421   1   -22.71849836  1.51456989 -4.53487967 
      422   2   -24.23229825  3.02912978 -3.02321978 
      423   1   -22.71849836  4.54371967 -1.51118989 
      424   2   -24.23229825  6.05829956 -0.00000000 
      425   1   -22.71849836  7.57287945  1.51118989 
      426   2   -24.23229825  9.08746934  3.02321978 
      427   1   -22.71849836  10.60199923  4.53487967 
      428   2   -24.23219825  12.11659912  6.04642956 
      429   2   -21.20399847 -3.02914978 -6.04647957 
      430   1   -19.68949858 -1.51456989 -4.53486967 
      431   2   -21.20399847  0.00000202 -3.02327978 
      432   1   -19.68949858  1.51457989 -1.51119989 
      433   2   -21.20399847  3.02914978 -0.00000000 
      434   1   -19.68949858  4.54371967  1.51119989 
      435   2   -21.20399847  6.05829956  3.02327978 
      436   1   -19.68949858  7.57286945  4.53486967 
      437   2   -21.20399847  9.08744934  6.04647957 
      438   2   -18.17489869 -6.05829956 -6.04647957 
      439   1   -16.66029880 -4.54371967 -4.53486967 
      440   2   -18.17489869 -3.02914978 -3.02327978 
      441   1   -16.66029880 -1.51457989 -1.51119989 
      442   2   -18.17489869  0.00000000  0.00000000 
      443   1   -16.66029880  1.51457989  1.51119989 
      444   2   -18.17489869  3.02914978  3.02327978 
      445   1   -16.66029880  4.54371967  4.53486967 
      446   2   -18.17489869  6.05829956  6.04647957 
      447   2   -15.14579891 -9.08744934 -6.04647957 
      448   1   -13.63119902 -7.57286945 -4.53486967 
      449   2   -15.14569891 -6.05829956 -3.02327978 
      450   1   -13.63119902 -4.54372967 -1.51119989 
      451   2   -15.14569891 -3.02914978 -0.00000000 
      452   1   -13.63119902 -1.51456989  1.51119989 
      453   2   -15.14569891  0.00000000  3.02327978 
      454   1   -13.63119902  1.51456989  4.53486967 
      455   2   -15.14579891  3.02914978  6.04647957 
      456   2   -12.11659912 -12.11659912 -6.04647957 
      457   1   -10.60199923 -10.60199923 -4.53486967 
      458   2   -12.11659912 -9.08744934 -3.02327978 
      459   1   -10.60199923 -7.57287945 -1.51119989 
      460   2   -12.11659912 -6.05829956 -0.00000000 
      461   1   -10.60199923 -4.54372967  1.51119989 
      462   2   -12.11659912 -3.02914978  3.02327978 
      463   1   -10.60199923 -1.51456989  4.53486967 
      464   2   -12.11659912 -0.00000000  6.04647957 
      465   2   -9.08744934 -15.14579891 -6.04647957 
      466   1   -7.57286945 -13.63119902 -4.53486967 
      467   2   -9.08744934 -12.11659912 -3.02327978 
      468   1   -7.57286945 -10.60199923 -1.51119989 
      469   2   -9.08744934 -9.08744934  0.00000000 
      470   1   -7.57287945 -7.57287945  1.51119989 
      471   2   -9.08744934 -6.05829956  3.02327978 
      472   1   -7.57287945 -4.54372967  4.53486967 
      473   2   -9.08744934 -3.02914978  6.04647957 
      474   2   -6.05829956 -18.17489869 -6.04647957 
      475   1   -4.54371967 -16.66029880 -4.53486967 
      476   2   -6.05829956 -15.14569891 -3.02327978 
      477   1   -4.54372967 -13.63119902 -1.51119989 
      478   2   -6.05829956 -12.11659912 -0.00000000 
      479   1   -4.54371967 -10.60199923  1.51119989 
      480   2   -6.05829956 -9.08744934  3.02327978 
      481   1   -4.54372967 -7.57287945  4.53486967 
      482   2   -6.05829956 -6.05829956  6.04647957 
      483   2   -3.02914978 -21.20399847 -6.04647957 
      484   1   -1.51456989 -19.68949858 -4.53486967 
      485   2   -3.02914978 -18.17489869 -3.02327978 
      486   1   -1.51457989 -16.66029880 -1.51119989 
      487   2   -3.02914978 -15.14569891 -0.00000000 
      488   1   -1.51456989 -13.63119902  1.51119989 
      489   2   -3.02914978 -12.11659912  3.02327978 
      490   1   -1.51456989 -10.60199923  4.53486967 
      491   2   -3.02914978 -9.08744934  6.04647957 
      492   2   -0.00002609 -24.23219825 -6.04642956 
      493   1    1.51456989 -22.71849836 -4.53487967 
      494   2    0.00000202 -21.20399847 -3.02327978 
      495   1    1.51457989 -19.68949858 -1.51119989 
      496   2    0.00000000 -18.17489869 -0.00000000 
      497   1    1.51457989 -16.66029880  1.51119989 
      498   2    0.00000000 -15.14569891  3.02327978 
      499   1    1.51456989 -13.63119902  4.53486967 
      500   2   -0.00000000 -12.11659912  6.04647957 
      501   2    3.02915978 -27.25649803 -6.04651956 
      502   1    4.54369967 -25.74429814 -4.53493967 
      503   2    3.02912978 -24.23229825 -3.02321978 
      504   1    4.54371967 -22.71849836 -1.51118989 
      505   2    3.02914978 -21.20399847 -0.00000000 
      506   1    4.54371967 -19.68949858  1.51119989 
      507   2    3.02914978 -18.17489869  3.02327978 
      508   1    4.54371967 -16.66029880  4.53486967 
      509   2    3.02914978 -15.14579891  6.04647957 
      510   1    7.57275945 -28.76829792 -4.53508967 
      511   2    6.05827956 -27.25639804 -3.02316978 
      512   1    7.57285945 -25.74429814 -1.51123989 
      513   2    6.05829956 -24.23229825 -0.00000000 
      514   1    7.57287945 -22.71849836  1.51118989 
      515   2    6.05829956 -21.20399847  3.02327978 
      516   1    7.57286945 -19.68949858  4.53486967 
      517   2    6.05829956 -18.17489869  6.04647957 
      518   2    9.08745934 -30.27969782 -3.02332978 
      519   1    10.60199923 -28.76809792 -1.51126989 
      520   2    9.08744934 -27.25629803  0.00000000 
      521   1    10.60199923 -25.74429814  1.51123989 
      522   2    9.08746934 -24.23229825  3.02321978 
      523   1    10.60199923 -22.71849836  4.53487967 
      524   2    9.08744934 -21.20399847  6.04647957 
      525   2    12.11659912 -30.27959781 -0.00000000 
      526   1    13.63119902 -28.76809792  1.51126989 
      527   2    12.11659912 -27.25639804  3.02316978 
      528   1    13.63119902 -25.74429814  4.53493967 
      529   2    12.11659912 -24.23219825  6.04642956 
      530   2    15.14569891 -30.27969782  3.02332978 
      531   1    16.66039880 -28.76829792  4.53508967 
      532   2    15.14569891 -27.25649803  6.04651956 
      533   1   -28.76829792  13.63109901 -4.53508967 
      534   2   -30.27969782  15.14579891 -3.02332978 
      535   1   -28.76809792  16.66029880 -1.51126989 
      536   2   -30.27959781  18.17489869  0.00000007 
      537   1   -28.76809792  19.68949858  1.51126989 
      538   2   -30.27969782  21.20399847  3.02332978 
      539   1   -28.76829792  22.71859836  4.53509967 
      540   2   -27.25649803  9.08745934 -6.04651956 
      541   1   -25.74429814  10.60199923 -4.53493967 
      542   2   -27.25639804  12.11659912 -3.02316978 
      543   1   -25.74429814  13.63119902 -1.51123989 
      544   2   -27.25629803  15.14569891 -0.00000000 
      545   1   -25.74429814  16.66029880  1.51123989 
      546   2   -27.25639804  18.17489869  3.02316978 